# vtk DataFile Version 3.0
#This file was generated by the deal.II library on 2026/1/5 at 14:19:29
ASCII
DATASET UNSTRUCTURED_GRID

POINTS 4096 double
0 0 0
0.03125 0 0
0 0.03125 0
0.03125 0.03125 0
0.03125 0 0
0.0625 0 0
0.03125 0.03125 0
0.0625 0.03125 0
0 0.03125 0
0.03125 0.03125 0
0 0.0625 0
0.03125 0.0625 0
0.03125 0.03125 0
0.0625 0.03125 0
0.03125 0.0625 0
0.0625 0.0625 0
0.0625 0 0
0.09375 0 0
0.0625 0.03125 0
0.09375 0.03125 0
0.09375 0 0
0.125 0 0
0.09375 0.03125 0
0.125 0.03125 0
0.0625 0.03125 0
0.09375 0.03125 0
0.0625 0.0625 0
0.09375 0.0625 0
0.09375 0.03125 0
0.125 0.03125 0
0.09375 0.0625 0
0.125 0.0625 0
0 0.0625 0
0.03125 0.0625 0
0 0.09375 0
0.03125 0.09375 0
0.03125 0.0625 0
0.0625 0.0625 0
0.03125 0.09375 0
0.0625 0.09375 0
0 0.09375 0
0.03125 0.09375 0
0 0.125 0
0.03125 0.125 0
0.03125 0.09375 0
0.0625 0.09375 0
0.03125 0.125 0
0.0625 0.125 0
0.0625 0.0625 0
0.09375 0.0625 0
0.0625 0.09375 0
0.09375 0.09375 0
0.09375 0.0625 0
0.125 0.0625 0
0.09375 0.09375 0
0.125 0.09375 0
0.0625 0.09375 0
0.09375 0.09375 0
0.0625 0.125 0
0.09375 0.125 0
0.09375 0.09375 0
0.125 0.09375 0
0.09375 0.125 0
0.125 0.125 0
0.125 0 0
0.15625 0 0
0.125 0.03125 0
0.15625 0.03125 0
0.15625 0 0
0.1875 0 0
0.15625 0.03125 0
0.1875 0.03125 0
0.125 0.03125 0
0.15625 0.03125 0
0.125 0.0625 0
0.15625 0.0625 0
0.15625 0.03125 0
0.1875 0.03125 0
0.15625 0.0625 0
0.1875 0.0625 0
0.1875 0 0
0.21875 0 0
0.1875 0.03125 0
0.21875 0.03125 0
0.21875 0 0
0.25 0 0
0.21875 0.03125 0
0.25 0.03125 0
0.1875 0.03125 0
0.21875 0.03125 0
0.1875 0.0625 0
0.21875 0.0625 0
0.21875 0.03125 0
0.25 0.03125 0
0.21875 0.0625 0
0.25 0.0625 0
0.125 0.0625 0
0.15625 0.0625 0
0.125 0.09375 0
0.15625 0.09375 0
0.15625 0.0625 0
0.1875 0.0625 0
0.15625 0.09375 0
0.1875 0.09375 0
0.125 0.09375 0
0.15625 0.09375 0
0.125 0.125 0
0.15625 0.125 0
0.15625 0.09375 0
0.1875 0.09375 0
0.15625 0.125 0
0.1875 0.125 0
0.1875 0.0625 0
0.21875 0.0625 0
0.1875 0.09375 0
0.21875 0.09375 0
0.21875 0.0625 0
0.25 0.0625 0
0.21875 0.09375 0
0.25 0.09375 0
0.1875 0.09375 0
0.21875 0.09375 0
0.1875 0.125 0
0.21875 0.125 0
0.21875 0.09375 0
0.25 0.09375 0
0.21875 0.125 0
0.25 0.125 0
0 0.125 0
0.03125 0.125 0
0 0.15625 0
0.03125 0.15625 0
0.03125 0.125 0
0.0625 0.125 0
0.03125 0.15625 0
0.0625 0.15625 0
0 0.15625 0
0.03125 0.15625 0
0 0.1875 0
0.03125 0.1875 0
0.03125 0.15625 0
0.0625 0.15625 0
0.03125 0.1875 0
0.0625 0.1875 0
0.0625 0.125 0
0.09375 0.125 0
0.0625 0.15625 0
0.09375 0.15625 0
0.09375 0.125 0
0.125 0.125 0
0.09375 0.15625 0
0.125 0.15625 0
0.0625 0.15625 0
0.09375 0.15625 0
0.0625 0.1875 0
0.09375 0.1875 0
0.09375 0.15625 0
0.125 0.15625 0
0.09375 0.1875 0
0.125 0.1875 0
0 0.1875 0
0.03125 0.1875 0
0 0.21875 0
0.03125 0.21875 0
0.03125 0.1875 0
0.0625 0.1875 0
0.03125 0.21875 0
0.0625 0.21875 0
0 0.21875 0
0.03125 0.21875 0
0 0.25 0
0.03125 0.25 0
0.03125 0.21875 0
0.0625 0.21875 0
0.03125 0.25 0
0.0625 0.25 0
0.0625 0.1875 0
0.09375 0.1875 0
0.0625 0.21875 0
0.09375 0.21875 0
0.09375 0.1875 0
0.125 0.1875 0
0.09375 0.21875 0
0.125 0.21875 0
0.0625 0.21875 0
0.09375 0.21875 0
0.0625 0.25 0
0.09375 0.25 0
0.09375 0.21875 0
0.125 0.21875 0
0.09375 0.25 0
0.125 0.25 0
0.125 0.125 0
0.15625 0.125 0
0.125 0.15625 0
0.15625 0.15625 0
0.15625 0.125 0
0.1875 0.125 0
0.15625 0.15625 0
0.1875 0.15625 0
0.125 0.15625 0
0.15625 0.15625 0
0.125 0.1875 0
0.15625 0.1875 0
0.15625 0.15625 0
0.1875 0.15625 0
0.15625 0.1875 0
0.1875 0.1875 0
0.1875 0.125 0
0.21875 0.125 0
0.1875 0.15625 0
0.21875 0.15625 0
0.21875 0.125 0
0.25 0.125 0
0.21875 0.15625 0
0.25 0.15625 0
0.1875 0.15625 0
0.21875 0.15625 0
0.1875 0.1875 0
0.21875 0.1875 0
0.21875 0.15625 0
0.25 0.15625 0
0.21875 0.1875 0
0.25 0.1875 0
0.125 0.1875 0
0.15625 0.1875 0
0.125 0.21875 0
0.15625 0.21875 0
0.15625 0.1875 0
0.1875 0.1875 0
0.15625 0.21875 0
0.1875 0.21875 0
0.125 0.21875 0
0.15625 0.21875 0
0.125 0.25 0
0.15625 0.25 0
0.15625 0.21875 0
0.1875 0.21875 0
0.15625 0.25 0
0.1875 0.25 0
0.1875 0.1875 0
0.21875 0.1875 0
0.1875 0.21875 0
0.21875 0.21875 0
0.21875 0.1875 0
0.25 0.1875 0
0.21875 0.21875 0
0.25 0.21875 0
0.1875 0.21875 0
0.21875 0.21875 0
0.1875 0.25 0
0.21875 0.25 0
0.21875 0.21875 0
0.25 0.21875 0
0.21875 0.25 0
0.25 0.25 0
0.25 0 0
0.28125 0 0
0.25 0.03125 0
0.28125 0.03125 0
0.28125 0 0
0.3125 0 0
0.28125 0.03125 0
0.3125 0.03125 0
0.25 0.03125 0
0.28125 0.03125 0
0.25 0.0625 0
0.28125 0.0625 0
0.28125 0.03125 0
0.3125 0.03125 0
0.28125 0.0625 0
0.3125 0.0625 0
0.3125 0 0
0.34375 0 0
0.3125 0.03125 0
0.34375 0.03125 0
0.34375 0 0
0.375 0 0
0.34375 0.03125 0
0.375 0.03125 0
0.3125 0.03125 0
0.34375 0.03125 0
0.3125 0.0625 0
0.34375 0.0625 0
0.34375 0.03125 0
0.375 0.03125 0
0.34375 0.0625 0
0.375 0.0625 0
0.25 0.0625 0
0.28125 0.0625 0
0.25 0.09375 0
0.28125 0.09375 0
0.28125 0.0625 0
0.3125 0.0625 0
0.28125 0.09375 0
0.3125 0.09375 0
0.25 0.09375 0
0.28125 0.09375 0
0.25 0.125 0
0.28125 0.125 0
0.28125 0.09375 0
0.3125 0.09375 0
0.28125 0.125 0
0.3125 0.125 0
0.3125 0.0625 0
0.34375 0.0625 0
0.3125 0.09375 0
0.34375 0.09375 0
0.34375 0.0625 0
0.375 0.0625 0
0.34375 0.09375 0
0.375 0.09375 0
0.3125 0.09375 0
0.34375 0.09375 0
0.3125 0.125 0
0.34375 0.125 0
0.34375 0.09375 0
0.375 0.09375 0
0.34375 0.125 0
0.375 0.125 0
0.375 0 0
0.40625 0 0
0.375 0.03125 0
0.40625 0.03125 0
0.40625 0 0
0.4375 0 0
0.40625 0.03125 0
0.4375 0.03125 0
0.375 0.03125 0
0.40625 0.03125 0
0.375 0.0625 0
0.40625 0.0625 0
0.40625 0.03125 0
0.4375 0.03125 0
0.40625 0.0625 0
0.4375 0.0625 0
0.4375 0 0
0.46875 0 0
0.4375 0.03125 0
0.46875 0.03125 0
0.46875 0 0
0.5 0 0
0.46875 0.03125 0
0.5 0.03125 0
0.4375 0.03125 0
0.46875 0.03125 0
0.4375 0.0625 0
0.46875 0.0625 0
0.46875 0.03125 0
0.5 0.03125 0
0.46875 0.0625 0
0.5 0.0625 0
0.375 0.0625 0
0.40625 0.0625 0
0.375 0.09375 0
0.40625 0.09375 0
0.40625 0.0625 0
0.4375 0.0625 0
0.40625 0.09375 0
0.4375 0.09375 0
0.375 0.09375 0
0.40625 0.09375 0
0.375 0.125 0
0.40625 0.125 0
0.40625 0.09375 0
0.4375 0.09375 0
0.40625 0.125 0
0.4375 0.125 0
0.4375 0.0625 0
0.46875 0.0625 0
0.4375 0.09375 0
0.46875 0.09375 0
0.46875 0.0625 0
0.5 0.0625 0
0.46875 0.09375 0
0.5 0.09375 0
0.4375 0.09375 0
0.46875 0.09375 0
0.4375 0.125 0
0.46875 0.125 0
0.46875 0.09375 0
0.5 0.09375 0
0.46875 0.125 0
0.5 0.125 0
0.25 0.125 0
0.28125 0.125 0
0.25 0.15625 0
0.28125 0.15625 0
0.28125 0.125 0
0.3125 0.125 0
0.28125 0.15625 0
0.3125 0.15625 0
0.25 0.15625 0
0.28125 0.15625 0
0.25 0.1875 0
0.28125 0.1875 0
0.28125 0.15625 0
0.3125 0.15625 0
0.28125 0.1875 0
0.3125 0.1875 0
0.3125 0.125 0
0.34375 0.125 0
0.3125 0.15625 0
0.34375 0.15625 0
0.34375 0.125 0
0.375 0.125 0
0.34375 0.15625 0
0.375 0.15625 0
0.3125 0.15625 0
0.34375 0.15625 0
0.3125 0.1875 0
0.34375 0.1875 0
0.34375 0.15625 0
0.375 0.15625 0
0.34375 0.1875 0
0.375 0.1875 0
0.25 0.1875 0
0.28125 0.1875 0
0.25 0.21875 0
0.28125 0.21875 0
0.28125 0.1875 0
0.3125 0.1875 0
0.28125 0.21875 0
0.3125 0.21875 0
0.25 0.21875 0
0.28125 0.21875 0
0.25 0.25 0
0.28125 0.25 0
0.28125 0.21875 0
0.3125 0.21875 0
0.28125 0.25 0
0.3125 0.25 0
0.3125 0.1875 0
0.34375 0.1875 0
0.3125 0.21875 0
0.34375 0.21875 0
0.34375 0.1875 0
0.375 0.1875 0
0.34375 0.21875 0
0.375 0.21875 0
0.3125 0.21875 0
0.34375 0.21875 0
0.3125 0.25 0
0.34375 0.25 0
0.34375 0.21875 0
0.375 0.21875 0
0.34375 0.25 0
0.375 0.25 0
0.375 0.125 0
0.40625 0.125 0
0.375 0.15625 0
0.40625 0.15625 0
0.40625 0.125 0
0.4375 0.125 0
0.40625 0.15625 0
0.4375 0.15625 0
0.375 0.15625 0
0.40625 0.15625 0
0.375 0.1875 0
0.40625 0.1875 0
0.40625 0.15625 0
0.4375 0.15625 0
0.40625 0.1875 0
0.4375 0.1875 0
0.4375 0.125 0
0.46875 0.125 0
0.4375 0.15625 0
0.46875 0.15625 0
0.46875 0.125 0
0.5 0.125 0
0.46875 0.15625 0
0.5 0.15625 0
0.4375 0.15625 0
0.46875 0.15625 0
0.4375 0.1875 0
0.46875 0.1875 0
0.46875 0.15625 0
0.5 0.15625 0
0.46875 0.1875 0
0.5 0.1875 0
0.375 0.1875 0
0.40625 0.1875 0
0.375 0.21875 0
0.40625 0.21875 0
0.40625 0.1875 0
0.4375 0.1875 0
0.40625 0.21875 0
0.4375 0.21875 0
0.375 0.21875 0
0.40625 0.21875 0
0.375 0.25 0
0.40625 0.25 0
0.40625 0.21875 0
0.4375 0.21875 0
0.40625 0.25 0
0.4375 0.25 0
0.4375 0.1875 0
0.46875 0.1875 0
0.4375 0.21875 0
0.46875 0.21875 0
0.46875 0.1875 0
0.5 0.1875 0
0.46875 0.21875 0
0.5 0.21875 0
0.4375 0.21875 0
0.46875 0.21875 0
0.4375 0.25 0
0.46875 0.25 0
0.46875 0.21875 0
0.5 0.21875 0
0.46875 0.25 0
0.5 0.25 0
0 0.25 0
0.03125 0.25 0
0 0.28125 0
0.03125 0.28125 0
0.03125 0.25 0
0.0625 0.25 0
0.03125 0.28125 0
0.0625 0.28125 0
0 0.28125 0
0.03125 0.28125 0
0 0.3125 0
0.03125 0.3125 0
0.03125 0.28125 0
0.0625 0.28125 0
0.03125 0.3125 0
0.0625 0.3125 0
0.0625 0.25 0
0.09375 0.25 0
0.0625 0.28125 0
0.09375 0.28125 0
0.09375 0.25 0
0.125 0.25 0
0.09375 0.28125 0
0.125 0.28125 0
0.0625 0.28125 0
0.09375 0.28125 0
0.0625 0.3125 0
0.09375 0.3125 0
0.09375 0.28125 0
0.125 0.28125 0
0.09375 0.3125 0
0.125 0.3125 0
0 0.3125 0
0.03125 0.3125 0
0 0.34375 0
0.03125 0.34375 0
0.03125 0.3125 0
0.0625 0.3125 0
0.03125 0.34375 0
0.0625 0.34375 0
0 0.34375 0
0.03125 0.34375 0
0 0.375 0
0.03125 0.375 0
0.03125 0.34375 0
0.0625 0.34375 0
0.03125 0.375 0
0.0625 0.375 0
0.0625 0.3125 0
0.09375 0.3125 0
0.0625 0.34375 0
0.09375 0.34375 0
0.09375 0.3125 0
0.125 0.3125 0
0.09375 0.34375 0
0.125 0.34375 0
0.0625 0.34375 0
0.09375 0.34375 0
0.0625 0.375 0
0.09375 0.375 0
0.09375 0.34375 0
0.125 0.34375 0
0.09375 0.375 0
0.125 0.375 0
0.125 0.25 0
0.15625 0.25 0
0.125 0.28125 0
0.15625 0.28125 0
0.15625 0.25 0
0.1875 0.25 0
0.15625 0.28125 0
0.1875 0.28125 0
0.125 0.28125 0
0.15625 0.28125 0
0.125 0.3125 0
0.15625 0.3125 0
0.15625 0.28125 0
0.1875 0.28125 0
0.15625 0.3125 0
0.1875 0.3125 0
0.1875 0.25 0
0.21875 0.25 0
0.1875 0.28125 0
0.21875 0.28125 0
0.21875 0.25 0
0.25 0.25 0
0.21875 0.28125 0
0.25 0.28125 0
0.1875 0.28125 0
0.21875 0.28125 0
0.1875 0.3125 0
0.21875 0.3125 0
0.21875 0.28125 0
0.25 0.28125 0
0.21875 0.3125 0
0.25 0.3125 0
0.125 0.3125 0
0.15625 0.3125 0
0.125 0.34375 0
0.15625 0.34375 0
0.15625 0.3125 0
0.1875 0.3125 0
0.15625 0.34375 0
0.1875 0.34375 0
0.125 0.34375 0
[...]
POINT_DATA 4096
SCALARS p double 1
LOOKUP_TABLE default
5.11476e-09 0.000134265 -0.000134633 1.6065e-07 0.000134265 0.000262102 1.6065e-07 3.70425e-05 -0.000134633 1.6065e-07 -0.000265067 -3.56258e-05 1.6065e-07 3.70425e-05 -3.56258e-05 3.33392e-06 0.000262102 0.000159392 3.70425e-05 -7.27492e-05 0.000159392 -0.000193513 -7.27492e-05 -0.000363756 3.70425e-05 -7.27492e-05 3.33392e-06 -0.000129028 -7.27492e-05 -0.000363756 -0.000129028 -0.000456251 -0.000265067 -3.56258e-05 -0.000168877 7.63576e-05 -3.56258e-05 3.33392e-06 7.63576e-05 0.000143046 -0.000168877 7.63576e-05 0.000177285 0.000374435 7.63576e-05 0.000143046 0.000374435 0.00048419 3.33392e-06 -0.000129028 0.000143046 1.16118e-05 -0.000129028 -0.000456251 1.16118e-05 -0.000312429 0.000143046 1.16118e-05 0.00048419 0.000347919 1.16118e-05 -0.000312429 0.000347919 1.89265e-05 -0.000193513 -0.000782076 -0.000363756 -0.000836389 -0.000782076 -0.00159053 -0.000836389 -0.00148444 -0.000363756 -0.000836389 -0.000456251 -0.000978256 -0.000836389 -0.00148444 -0.000978256 -0.00169084 -0.00159053 -0.00260583 -0.00148444 -0.002299 -0.00260583 -0.00381473 -0.002299 -0.00326967 -0.00148444 -0.002299 -0.00169084 -0.00258564 -0.002299 -0.00326967 -0.00258564 -0.00365181 -0.000456251 -0.000978256 -0.000312429 -0.000829068 -0.000978256 -0.00169084 -0.000829068 -0.00153318 -0.000312429 -0.000829068 1.89265e-05 -0.000509669 -0.000829068 -0.00153318 -0.000509669 -0.00122997 -0.00169084 -0.00258564 -0.00153318 -0.00241709 -0.00258564 -0.00365181 -0.00241709 -0.0034704 -0.00153318 -0.00241709 -0.00122997 -0.00213426 -0.00241709 -0.0034704 -0.00213426 -0.00321186 0.000177285 0.000374435 0.000768493 0.00086686 0.000374435 0.00048419 0.00086686 0.00103544 0.000768493 0.00086686 0.00160402 0.00155965 0.00086686 0.00103544 0.00155965 0.00180607 0.00048419 0.000347919 0.00103544 0.000888472 0.000347919 1.89265e-05 0.000888472 0.000553241 0.00103544 0.000888472 0.00180607 0.00164134 0.000888472 0.000553241 0.00164134 0.00129586 0.00160402 0.00155965 0.00269121 0.00246057 0.00155965 0.00180607 0.00246057 0.00280612 0.00269121 0.00246057 0.00404273 0.00358046 0.00246057 0.00280612 0.00358046 0.00404819 0.00180607 0.00164134 0.00280612 0.00261686 0.00164134 0.00129586 0.00261686 0.00225709 0.00280612 0.00261686 0.00404819 0.0038276 0.00261686 0.00225709 0.0038276 0.00344924 1.89265e-05 -0.000509669 0.000553241 8.96104e-06 -0.000509669 -0.00122997 8.96104e-06 -0.000732939 0.000553241 8.96104e-06 0.00129586 0.000728671 8.96104e-06 -0.000732939 0.000728671 -4.44252e-05 -0.00122997 -0.00213426 -0.000732939 -0.00166472 -0.00213426 -0.00321186 -0.00166472 -0.00277519 -0.000732939 -0.00166472 -4.44252e-05 -0.0010158 -0.00166472 -0.00277519 -0.0010158 -0.0021735 0.00129586 0.000728671 0.00225709 0.00165969 0.000728671 -4.44252e-05 0.00165969 0.000845879 0.00225709 0.00165969 0.00344924 0.00281369 0.00165969 0.000845879 0.00281369 0.00194885 -4.44252e-05 -0.0010158 0.000845879 -0.000176938 -0.0010158 -0.0021735 -0.000176938 -0.00139586 0.000845879 -0.000176938 0.00194885 0.000861792 -0.000176938 -0.00139586 0.000861792 -0.000433398 -0.00381473 -0.00520241 -0.00326967 -0.00438466 -0.00520241 -0.00675221 -0.00438466 -0.00563055 -0.00326967 -0.00438466 -0.00365181 -0.00487655 -0.00438466 -0.00563055 -0.00487655 -0.00624522 -0.00675221 -0.00844577 -0.00563055 -0.00699257 -0.00844577 -0.0102631 -0.00699257 -0.00845456 -0.00563055 -0.00699257 -0.00624522 -0.00774157 -0.00699257 -0.00845456 -0.00774157 -0.0093479 -0.00365181 -0.00487655 -0.0034704 -0.00468062 -0.00487655 -0.00624522 -0.00468062 -0.0060334 -0.0034704 -0.00468062 -0.00321186 -0.00445006 -0.00468062 -0.0060334 -0.00445006 -0.00583425 -0.00624522 -0.00774157 -0.0060334 -0.00751272 -0.00774157 -0.0093479 -0.00751272 -0.00910109 -0.0060334 -0.00751272 -0.00583425 -0.00734806 -0.00751272 -0.00910109 -0.00734806 -0.00897364 -0.0102631 -0.0121826 -0.00845456 -0.0099992 -0.0121826 -0.0141815 -0.0099992 -0.0116082 -0.00845456 -0.0099992 -0.0093479 -0.0110451 -0.0099992 -0.0116082 -0.0110451 -0.0128131 -0.0141815 -0.0162363 -0.0116082 -0.0132624 -0.0162363 -0.0183223 -0.0132624 -0.0149419 -0.0116082 -0.0132624 -0.0128131 -0.0146308 -0.0132624 -0.0149419 -0.0146308 -0.0164765 -0.0093479 -0.0110451 -0.00910109 -0.0107797 -0.0110451 -0.0128131 -0.0107797 -0.0125286 -0.00910109 -0.0107797 -0.00897364 -0.0106918 -0.0107797 -0.0125286 -0.0106918 -0.0124822 -0.0128131 -0.0146308 -0.0125286 -0.0143271 -0.0146308 -0.0164765 -0.0143271 -0.0161536 -0.0125286 -0.0143271 -0.0124822 -0.0143236 -0.0143271 -0.0161536 -0.0143236 -0.016194 -0.00321186 -0.00445006 -0.00277519 -0.00405124 -0.00445006 -0.00583425 -0.00405124 -0.00547782 -0.00277519 -0.00405124 -0.0021735 -0.00350382 -0.00405124 -0.00547782 -0.00350382 -0.00499102 -0.00583425 -0.00734806 -0.00547782 -0.00703807 -0.00734806 -0.00897364 -0.00703807 -0.00871366 -0.00547782 -0.00703807 -0.00499102 -0.00661756 -0.00703807 -0.00871366 -0.00661756 -0.00836435 -0.0021735 -0.00350382 -0.00139586 -0.0027964 -0.00350382 -0.00499102 -0.0027964 -0.0043619 -0.00139586 -0.0027964 -0.000433398 -0.00192122 -0.0027964 -0.0043619 -0.00192122 -0.00358387 -0.00499102 -0.00661756 -0.0043619 -0.00607392 -0.00661756 -0.00836435 -0.00607392 -0.00791243 -0.0043619 -0.00607392 -0.00358387 -0.00540175 -0.00607392 -0.00791243 -0.00540175 -0.00735367 -0.00897364 -0.0106918 -0.00871366 -0.0104848 -0.0106918 -0.0124822 -0.0104848 -0.0123308 -0.00871366 -0.0104848 -0.00836435 -0.0102109 -0.0104848 -0.0123308 -0.0102109 -0.0121357 -0.0124822 -0.0143236 -0.0123308 -0.0142297 -0.0143236 -0.016194 -0.0142297 -0.016159 -0.0123308 -0.0142297 -0.0121357 -0.014116 -0.0142297 -0.016159 -0.014116 -0.0161286 -0.00836435 -0.0102109 -0.00791243 -0.00985597 -0.0102109 -0.0121357 -0.00985597 -0.011882 -0.00791243 -0.00985597 -0.00735367 -0.00941699 -0.00985597 -0.011882 -0.00941699 -0.011568 -0.0121357 -0.014116 -0.011882 -0.0139669 -0.014116 -0.0161286 -0.0139669 -0.0160863 -0.011882 -0.0139669 -0.011568 -0.0137819 -0.0139669 -0.0160863 -0.0137819 -0.0160331 0.00404273 0.00358046 0.00567539 0.0049334 0.00358046 0.00404819 0.0049334 0.00554812 0.00567539 0.0049334 0.00760991 0.00653669 0.0049334 0.00554812 0.00653669 0.00732517 0.00404819 0.0038276 0.00554812 0.00528911 0.0038276 0.00344924 0.00528911 0.00488759 0.00554812 0.00528911 0.00732517 0.00702017 0.00528911 0.00488759 0.00702017 0.00659051 0.00760991 0.00653669 0.00987123 0.00841116 0.00653669 0.00732517 0.00841116 0.00940253 0.00987123 0.00841116 0.0124889 0.0105816 0.00841116 0.00940253 0.0105816 0.0118077 0.00732517 0.00702017 0.00940253 0.00904331 0.00702017 0.00659051 0.00904331 0.00857995 0.00940253 0.00904331 0.0118077 0.0113852 0.00904331 0.00857995 0.0113852 0.0108818 0.00344924 0.00281369 0.00488759 0.00420534 0.00281369 0.00194885 0.00420534 0.00327832 0.00488759 0.00420534 0.00659051 0.00585223 0.00420534 0.00327832 0.00585223 0.00485084 0.00194885 0.000861792 0.00327832 0.00211328 0.000861792 -0.000433398 0.00211328 0.000725741 0.00327832 0.00211328 0.00485084 0.00359286 0.00211328 0.000725741 0.00359286 0.00209557 0.00659051 0.00585223 0.00857995 0.00777523 0.00585223 0.00485084 0.00777523 0.00668601 0.00857995 0.00777523 0.0108818 0.00999893 0.00777523 0.00668601 0.00999893 0.00880671 0.00485084 0.00359286 0.00668601 0.00531857 0.00359286 0.00209557 0.00531857 0.00369244 0.00668601 0.00531857 0.00880671 0.0073114 0.00531857 0.00369244 0.0073114 0.00553526 0.0124889 0.0105816 0.0154976 0.0130772 0.0105816 0.0118077 0.0130772 0.0145734 0.0154976 0.0130772 0.0189385 0.0159327 0.0130772 0.0145734 0.0159327 0.0177379 0.0118077 0.0113852 0.0145734 0.0140774 0.0113852 0.0108818 0.0140774 0.0135265 0.0145734 0.0140774 0.0177379 0.017157 0.0140774 0.0135265 0.017157 0.0165498 0.0189385 0.0159327 0.0228599 0.019189 0.0159327 0.0177379 0.019189 0.021347 0.0228599 0.019189 0.0273187 0.0228946 0.019189 0.021347 0.0228946 0.0254548 0.0177379 0.017157 0.021347 0.0206678 0.017157 0.0165498 0.0206678 0.0199934 0.021347 0.0206678 0.0254548 0.0246617 0.0206678 0.0199934 0.0246617 0.0239064 0.0108818 0.00999893 0.0135265 0.012552 0.00999893 0.00880671 0.012552 0.0112394 0.0135265 0.012552 0.0165498 0.0154678 0.012552 0.0112394 0.0154678 0.0140147 0.00880671 0.0073114 0.0112394 0.00959537 0.0073114 0.00553526 0.00959537 0.00764553 0.0112394 0.00959537 0.0140147 0.0121979 0.00959537 0.00764553 0.0121979 0.0100474 0.0165498 0.0154678 0.0199934 0.0187851 0.0154678 0.0140147 0.0187851 0.0171676 0.0199934 0.0187851 0.0239064 0.0225487 0.0187851 0.0171676 0.0225487 0.0207381 0.0140147 0.0121979 0.0171676 0.01515 0.0121979 0.0100474 0.01515 0.0127677 0.0171676 0.01515 0.0207381 0.0184864 0.01515 0.0127677 0.0184864 0.0158361 -0.000433398 -0.00192122 0.000725741 -0.000867504 -0.00192122 -0.00358387 -0.000867504 -0.00264727 0.000725741 -0.000867504 0.00209557 0.000377335 -0.000867504 -0.00264727 0.000377335 -0.00154095 -0.00358387 -0.00540175 -0.00264727 -0.00459255 -0.00540175 -0.00735367 -0.00459255 -0.00668071 -0.00264727 -0.00459255 -0.00154095 -0.00363657 -0.00459255 -0.00668071 -0.00363657 -0.00588524 0.00209557 0.000377335 0.00369244 0.00182793 0.000377335 -0.00154095 0.00182793 -0.000251998 0.00369244 0.00182793 0.00553526 0.00350108 0.00182793 -0.000251998 0.00350108 0.00123432 -0.00154095 -0.00363657 -0.000251998 -0.0025226 -0.00363657 -0.00588524 -0.0025226 -0.00495763 -0.000251998 -0.0025226 0.00123432 -0.00123789 -0.0025226 -0.00495763 -0.00123789 -0.00388702 -0.00735367 -0.00941699 -0.00668071 -0.00888774 -0.00941699 -0.011568 -0.00888774 -0.0111885 -0.00668071 -0.00888774 -0.00588524 -0.00826132 -0.00888774 -0.0111885 -0.00826132 -0.0107381 -0.011568 -0.0137819 -0.0111885 -0.013557 -0.0137819 -0.0160331 -0.013557 -0.0159661 -0.0111885 -0.013557 -0.0107381 -0.013288 -0.013557 -0.0159661 -0.013288 -0.0158825 -0.00588524 -0.00826132 -0.00495763 -0.00752962 -0.00826132 -0.0107381 -0.00752962 -0.0102102 -0.00495763 -0.00752962 -0.00388702 -0.00668353 -0.00752962 -0.0102102 -0.00668353 -0.00959713 -0.0107381 -0.013288 -0.0102102 -0.0129699 -0.013288 -0.0158825 -0.0129699 -0.0157788 -0.0102102 -0.0129699 -0.00959713 -0.0125968 -0.0129699 -0.0157788 -0.0125968 -0.0156508 0.00553526 0.00350108 0.00764553 0.0054157 0.00350108 0.00123432 0.0054157 0.00293442 0.00764553 0.0054157 0.0100474 0.00759277 0.0054157 0.00293442 0.00759277 0.00486634 0.00123432 -0.00123789 0.00293442 0.000231703 -0.00123789 -0.00388702 0.000231703 -0.00266134 0.00293442 0.000231703 0.00486634 0.00190152 0.000231703 -0.00266134 0.00190152 -0.00126762 0.0100474 0.00759277 0.0127677 0.0100553 0.00759277 0.00486634 0.0100553 0.00704954 0.0127677 0.0100553 0.0158361 0.0128279 0.0100553 0.00704954 0.0128279 0.00950435 0.00486634 0.00190152 0.00704954 0.00378792 0.00190152 -0.00126762 0.00378792 0.000307922 0.00704954 0.00378792 0.00950435 0.00590771 0.00378792 0.000307922 0.00590771 0.00207925 -0.00388702 -0.00668353 -0.00266134 -0.00571291 -0.00668353 -0.00959713 -0.00571291 -0.00889065 -0.00266134 -0.00571291 -0.00126762 -0.00460677 -0.00571291 -0.00889065 -0.00460677 -0.00808151 -0.00959713 -0.0125968 -0.00889065 -0.0121618 -0.0125968 -0.0156508 -0.0121618 -0.0154931 -0.00889065 -0.0121618 -0.00808151 -0.0116574 -0.0121618 -0.0154931 -0.0116574 -0.0152997 -0.00126762 -0.00460677 0.000307922 -0.00335346 -0.00460677 -0.00808151 -0.00335346 -0.00715978 0.000307922 -0.00335346 0.00207925 -0.00194115 -0.00335346 -0.00715978 -0.00194115 -0.00611515 -0.00808151 -0.0116574 -0.00715978 -0.0110751 -0.0116574 -0.0152997 -0.0110751 -0.0150635 -0.00715978 -0.0110751 -0.00611515 -0.0104056 -0.0110751 -0.0150635 -0.0104056 -0.014776 -0.0183223 -0.0204146 -0.0149419 -0.0166266 -0.0204146 -0.0224878 -0.0166266 -0.018296 -0.0149419 -0.0166266 -0.0164765 -0.0183278 -0.0166266 -0.018296 -0.0183278 -0.0201624 -0.0224878 -0.0245166 -0.018296 -0.0199297 -0.0245166 -0.026476 -0.0199297 -0.0215072 -0.018296 -0.0199297 -0.0201624 -0.0219576 -0.0199297 -0.0215072 -0.0219576 -0.0236913 -0.0164765 -0.0183278 -0.0161536 -0.017986 -0.0183278 -0.0201624 -0.017986 -0.0198022 -0.0161536 -0.017986 -0.016194 -0.018071 -0.017986 -0.0198022 -0.018071 -0.0199317 -0.0201624 -0.0219576 -0.0198022 -0.0215798 -0.0219576 -0.0236913 -0.0215798 -0.0232966 -0.0198022 -0.0215798 -0.0199317 -0.0217533 -0.0215798 -0.0232966 -0.0217533 -0.0235132 -0.026476 -0.0283414 -0.0215072 -0.0230089 -0.0283414 -0.0300891 -0.0230089 -0.0244156 -0.0215072 -0.0230089 -0.0236913 -0.0253415 -0.0230089 -0.0244156 -0.0253415 -0.0268872 -0.0300891 -0.0316965 -0.0244156 -0.025709 -0.0316965 -0.0331426 -0.025709 -0.0268722 -0.0244156 -0.025709 -0.0268872 -0.0283085 -0.025709 -0.0268722 -0.0283085 -0.0295866 -0.0236913 -0.0253415 -0.0232966 -0.0249311 -0.0253415 -0.0268872 -0.0249311 -0.0264623 -0.0232966 -0.0249311 -0.0235132 -0.0251892 -0.0249311 -0.0264623 -0.0251892 -0.0267597 -0.0268872 -0.0283085 -0.0264623 -0.0278704 -0.0283085 -0.0295866 -0.0278704 -0.0291367 -0.0264623 -0.0278704 -0.0267597 -0.0282043 -0.0278704 -0.0291367 -0.0282043 -0.0295038 -0.016194 -0.018071 -0.016159 -0.0180955 -0.018071 -0.0199317 -0.0180955 -0.020016 -0.016159 -0.0180955 -0.0161286 -0.0181494 -0.0180955 -0.020016 -0.0181494 -0.0201542 -0.0199317 -0.0217533 -0.020016 -0.0218967 -0.0217533 -0.0235132 -0.0218967 -0.0237145 -0.020016 -0.0218967 -0.0201542 -0.0221185 -0.0218967 -0.0237145 -0.0221185 -0.0240179 -0.0161286 -0.0181494 -0.0160863 -0.0182152 -0.0181494 -0.0201542 -0.0182152 -0.0203282 -0.0160863 -0.0182152 -0.0160331 -0.0182954 -0.0182152 -0.0203282 -0.0182954 -0.0205421 -0.0201542 -0.0221185 -0.0203282 -0.0223998 -0.0221185 -0.0240179 -0.0223998 -0.0244043 -0.0203282 -0.0223998 -0.0205421 -0.0227462 -0.0223998 -0.0244043 -0.0227462 -0.0248807 -0.0235132 -0.0251892 -0.0237145 -0.0254463 -0.0251892 -0.0267597 -0.0254463 -0.0270698 -0.0237145 -0.0254463 -0.0240179 -0.0258286 -0.0254463 -0.0270698 -0.0258286 -0.027527 -0.0267597 -0.0282043 -0.0270698 -0.0285638 -0.0282043 -0.0295038 -0.0285638 -0.0299083 -0.0270698 -0.0285638 -0.027527 -0.0290909 -0.0285638 -0.0299083 -0.0290909 -0.0304992 -0.0240179 -0.0258286 -0.0244043 -0.0263165 -0.0258286 -0.027527 -0.0263165 -0.0281115 -0.0244043 -0.0263165 -0.0248807 -0.0269186 -0.0263165 -0.0281115 -0.0269186 -0.0288336 -0.027527 -0.0290909 -0.0281115 -0.0297657 -0.0290909 -0.0304992 -0.0297657 -0.0312563 -0.0281115 -0.0297657 -0.0288336 -0.0306 -0.0297657 -0.0312563 -0.0306 -0.0321934 -0.0331426 -0.0344082 -0.0268722 -0.0278894 -0.0344082 -0.0354751 -0.0278894 -0.0287479 -0.0268722 -0.0278894 -0.0295866 -0.0307043 -0.0278894 -0.0287479 -0.0307043 -0.0316475 -0.0354751 -0.0363316 -0.0287479 -0.0294286 -0.0363316 -0.036944 -0.0294286 -0.0299569 -0.0287479 -0.0294286 -0.0316475 -0.0323975 -0.0294286 -0.0299569 -0.0323975 -0.0329733 -0.0295866 -0.0307043 -0.0291367 -0.0302442 -0.0307043 -0.0316475 -0.0302442 -0.0311788 -0.0291367 -0.0302442 -0.0295038 -0.0306406 -0.0302442 -0.0311788 -0.0306406 -0.0316002 -0.0316475 -0.0323975 -0.0311788 -0.031922 -0.0323975 -0.0329733 -0.031922 -0.0324949 -0.0311788 -0.031922 -0.0316002 -0.0323636 -0.031922 -0.0324949 -0.0323636 -0.0329514 -0.036944 -0.0373872 -0.0299569 -0.0301446 -0.0373872 -0.0375177 -0.0301446 -0.0309138 -0.0299569 -0.0301446 -0.0329733 -0.0332105 -0.0301446 -0.0309138 -0.0332105 -0.0339627 -0.0375177 -0.0355573 -0.0309138 -0.027764 -0.0355573 -0.0389086 -0.027764 -0.0352853 -0.0309138 -0.027764 -0.0339627 -0.0308463 -0.027764 -0.0352853 -0.0308463 -0.0369938 -0.0329733 -0.0332105 -0.0324949 -0.0327245 -0.0332105 -0.0339627 -0.0327245 -0.0335063 -0.0324949 -0.0327245 -0.0329514 -0.0331903 -0.0327245 -0.0335063 -0.0331903 -0.0339731 -0.0339627 -0.0308463 -0.0335063 -0.0303193 -0.0308463 -0.0369938 -0.0303193 -0.0370858 -0.0335063 -0.0303193 -0.0339731 -0.0307535 -0.0303193 -0.0370858 -0.0307535 -0.0373818 -0.0295038 -0.0306406 -0.0299083 -0.0310849 -0.0306406 -0.0316002 -0.0310849 -0.0320784 -0.0299083 -0.0310849 -0.0304992 -0.0317322 -0.0310849 -0.0320784 -0.0317322 -0.0327737 -0.0316002 -0.0323636 -0.0320784 -0.0328689 -0.0323636 -0.0329514 -0.0328689 -0.0334769 -0.0320784 -0.0328689 -0.0327737 -0.0336027 -0.0328689 -0.0334769 -0.0336027 -0.0342394 -0.0304992 -0.0317322 -0.0312563 -0.0325624 -0.0317322 -0.0327737 -0.0325624 -0.0336663 -0.0312563 -0.0325624 -0.0321934 -0.0335908 -0.0325624 -0.0336663 -0.0335908 -0.0347729 -0.0327737 -0.0336027 -0.0336663 -0.0345455 -0.0336027 -0.0342394 -0.0345455 -0.0352199 -0.0336663 -0.0345455 -0.0347729 -0.0357151 -0.0345455 -0.0352199 -0.0357151 -0.0364373 -0.0329514 -0.0331903 -0.0334769 -0.0337248 -0.0331903 -0.0339731 -0.0337248 -0.0345209 -0.0334769 -0.0337248 -0.0342394 -0.0345014 -0.0337248 -0.0345209 -0.0345014 -0.0353175 -0.0339731 -0.0307535 -0.0345209 -0.0312363 -0.0307535 -0.0373818 -0.0312363 -0.0380044 -0.0345209 -0.0312363 -0.0353175 -0.0319547 -0.0312363 -0.0380044 -0.0319547 -0.0388616 -0.0342394 -0.0345014 -0.0352199 -0.0355012 -0.0345014 -0.0353175 -0.0355012 -0.0363451 -0.0352199 -0.0355012 -0.0364373 -0.0367437 -0.0355012 -0.0363451 -0.0367437 -0.037623 -0.0353175 -0.0319547 -0.0363451 -0.0328814 -0.0319547 -0.0388616 -0.0328814 -0.0399807 -0.0363451 -0.0328814 -0.037623 -0.0340354 -0.0328814 -0.0399807 -0.0340354 -0.0413716 -0.0160331 -0.0182954 -0.0159661 -0.0183882 -0.0182954 -0.0205421 -0.0183882 -0.0207953 -0.0159661 -0.0183882 -0.0158825 -0.0184925 -0.0183882 -0.0207953 -0.0184925 -0.0210881 -0.0205421 -0.0227462 -0.0207953 -0.0231586 -0.0227462 -0.0248807 -0.0231586 -0.0254495 -0.0207953 -0.0231586 -0.0210881 -0.0236391 -0.0231586 -0.0254495 -0.0236391 -0.0261147 -0.0158825 -0.0184925 -0.0157788 -0.0186062 -0.0184925 -0.0210881 -0.0186062 -0.0214203 -0.0157788 -0.0186062 -0.0156508 -0.0187267 -0.0186062 -0.0214203 -0.0187267 -0.0217912 -0.0210881 -0.0236391 -0.0214203 -0.0241892 -0.0236391 -0.0261147 -0.0241892 -0.0268799 -0.0214203 -0.0241892 -0.0217912 -0.0248103 -0.0241892 -0.0268799 -0.0248103 -0.0277488 -0.0248807 -0.0269186 -0.0254495 -0.0276392 -0.0269186 -0.0288336 -0.0276392 -0.0296992 -0.0254495 -0.0276392 -0.0261147 -0.028484 -0.0276392 -0.0296992 -0.028484 -0.0307162 -0.0288336 -0.0306 -0.0296992 -0.0316016 -0.0306 -0.0321934 -0.0316016 -0.0333199 -0.0296992 -0.0316016 -0.0307162 -0.0327808 -0.0316016 -0.0333199 -0.0327808 -0.0346484 -0.0261147 -0.028484 -0.0268799 -0.0294591 -0.028484 -0.0307162 -0.0294591 -0.0318933 -0.0268799 -0.0294591 -0.0277488 -0.0305709 -0.0294591 -0.0318933 -0.0305709 -0.0332397 -0.0307162 -0.0327808 -0.0318933 -0.0341488 -0.0327808 -0.0346484 -0.0341488 -0.0361931 -0.0318933 -0.0341488 -0.0332397 -0.0357184 -0.0341488 -0.0361931 -0.0357184 -0.03797 -0.0156508 -0.0187267 -0.0154931 -0.0188505 -0.0187267 -0.0217912 -0.0188505 -0.0221991 -0.0154931 -0.0188505 -0.0152997 -0.0189731 -0.0188505 -0.0221991 -0.0189731 -0.0226413 -0.0217912 -0.0248103 -0.0221991 -0.0255029 -0.0248103 -0.0277488 -0.0255029 -0.0287246 -0.0221991 -0.0255029 -0.0226413 -0.0262666 -0.0255029 -0.0287246 -0.0262666 -0.0298094 -0.0152997 -0.0189731 -0.0150635 -0.0190887 -0.0189731 -0.0226413 -0.0190887 -0.0231135 -0.0150635 -0.0190887 -0.014776 -0.0191899 -0.0190887 -0.0231135 -0.0191899 -0.0236095 -0.0226413 -0.0262666 -0.0231135 -0.0270989 -0.0262666 -0.0298094 -0.0270989 -0.0310035 -0.0231135 -0.0270989 -0.0236095 -0.0279955 -0.0270989 -0.0310035 -0.0279955 -0.032305 -0.0277488 -0.0305709 -0.0287246 -0.0318254 -0.0305709 -0.0332397 -0.0318254 -0.0347652 -0.0287246 -0.0318254 -0.0298094 -0.0332282 -0.0318254 -0.0347652 -0.0332282 -0.0364791 -0.0332397 -0.0357184 -0.0347652 -0.0375029 -0.0357184 -0.03797 -0.0375029 -0.0399969 -0.0347652 -0.0375029 -0.0364791 -0.0395164 -0.0375029 -0.0399969 -0.0395164 -0.0422929 -0.0298094 -0.0332282 -0.0310035 -0.034783 -0.0332282 -0.0364791 -0.034783 -0.0383898 -0.0310035 -0.034783 -0.032305 -0.0364915 -0.034783 -0.0383898 -0.0364915 -0.0405035 -0.0364791 -0.0395164 -0.0383898 -0.0417727 -0.0395164 -0.0422929 -0.0417727 -0.0448781 -0.0383898 -0.0417727 -0.0405035 -0.0442844 -0.0417727 -0.0448781 -0.0442844 -0.047772