# vtk DataFile Version 3.0
#This file was generated by the deal.II library on 2026/1/5 at 14:19:33
ASCII
DATASET UNSTRUCTURED_GRID

POINTS 4096 double
0 0 0
0.03125 0 0
0 0.03125 0
0.03125 0.03125 0
0.03125 0 0
0.0625 0 0
0.03125 0.03125 0
0.0625 0.03125 0
0 0.03125 0
0.03125 0.03125 0
0 0.0625 0
0.03125 0.0625 0
0.03125 0.03125 0
0.0625 0.03125 0
0.03125 0.0625 0
0.0625 0.0625 0
0.0625 0 0
0.09375 0 0
0.0625 0.03125 0
0.09375 0.03125 0
0.09375 0 0
0.125 0 0
0.09375 0.03125 0
0.125 0.03125 0
0.0625 0.03125 0
0.09375 0.03125 0
0.0625 0.0625 0
0.09375 0.0625 0
0.09375 0.03125 0
0.125 0.03125 0
0.09375 0.0625 0
0.125 0.0625 0
0 0.0625 0
0.03125 0.0625 0
0 0.09375 0
0.03125 0.09375 0
0.03125 0.0625 0
0.0625 0.0625 0
0.03125 0.09375 0
0.0625 0.09375 0
0 0.09375 0
0.03125 0.09375 0
0 0.125 0
0.03125 0.125 0
0.03125 0.09375 0
0.0625 0.09375 0
0.03125 0.125 0
0.0625 0.125 0
0.0625 0.0625 0
0.09375 0.0625 0
0.0625 0.09375 0
0.09375 0.09375 0
0.09375 0.0625 0
0.125 0.0625 0
0.09375 0.09375 0
0.125 0.09375 0
0.0625 0.09375 0
0.09375 0.09375 0
0.0625 0.125 0
0.09375 0.125 0
0.09375 0.09375 0
0.125 0.09375 0
0.09375 0.125 0
0.125 0.125 0
0.125 0 0
0.15625 0 0
0.125 0.03125 0
0.15625 0.03125 0
0.15625 0 0
0.1875 0 0
0.15625 0.03125 0
0.1875 0.03125 0
0.125 0.03125 0
0.15625 0.03125 0
0.125 0.0625 0
0.15625 0.0625 0
0.15625 0.03125 0
0.1875 0.03125 0
0.15625 0.0625 0
0.1875 0.0625 0
0.1875 0 0
0.21875 0 0
0.1875 0.03125 0
0.21875 0.03125 0
0.21875 0 0
0.25 0 0
0.21875 0.03125 0
0.25 0.03125 0
0.1875 0.03125 0
0.21875 0.03125 0
0.1875 0.0625 0
0.21875 0.0625 0
0.21875 0.03125 0
0.25 0.03125 0
0.21875 0.0625 0
0.25 0.0625 0
0.125 0.0625 0
0.15625 0.0625 0
0.125 0.09375 0
0.15625 0.09375 0
0.15625 0.0625 0
0.1875 0.0625 0
0.15625 0.09375 0
0.1875 0.09375 0
0.125 0.09375 0
0.15625 0.09375 0
0.125 0.125 0
0.15625 0.125 0
0.15625 0.09375 0
0.1875 0.09375 0
0.15625 0.125 0
0.1875 0.125 0
0.1875 0.0625 0
0.21875 0.0625 0
0.1875 0.09375 0
0.21875 0.09375 0
0.21875 0.0625 0
0.25 0.0625 0
0.21875 0.09375 0
0.25 0.09375 0
0.1875 0.09375 0
0.21875 0.09375 0
0.1875 0.125 0
0.21875 0.125 0
0.21875 0.09375 0
0.25 0.09375 0
0.21875 0.125 0
0.25 0.125 0
0 0.125 0
0.03125 0.125 0
0 0.15625 0
0.03125 0.15625 0
0.03125 0.125 0
0.0625 0.125 0
0.03125 0.15625 0
0.0625 0.15625 0
0 0.15625 0
0.03125 0.15625 0
0 0.1875 0
0.03125 0.1875 0
0.03125 0.15625 0
0.0625 0.15625 0
0.03125 0.1875 0
0.0625 0.1875 0
0.0625 0.125 0
0.09375 0.125 0
0.0625 0.15625 0
0.09375 0.15625 0
0.09375 0.125 0
0.125 0.125 0
0.09375 0.15625 0
0.125 0.15625 0
0.0625 0.15625 0
0.09375 0.15625 0
0.0625 0.1875 0
0.09375 0.1875 0
0.09375 0.15625 0
0.125 0.15625 0
0.09375 0.1875 0
0.125 0.1875 0
0 0.1875 0
0.03125 0.1875 0
0 0.21875 0
0.03125 0.21875 0
0.03125 0.1875 0
0.0625 0.1875 0
0.03125 0.21875 0
0.0625 0.21875 0
0 0.21875 0
0.03125 0.21875 0
0 0.25 0
0.03125 0.25 0
0.03125 0.21875 0
0.0625 0.21875 0
0.03125 0.25 0
0.0625 0.25 0
0.0625 0.1875 0
0.09375 0.1875 0
0.0625 0.21875 0
0.09375 0.21875 0
0.09375 0.1875 0
0.125 0.1875 0
0.09375 0.21875 0
0.125 0.21875 0
0.0625 0.21875 0
0.09375 0.21875 0
0.0625 0.25 0
0.09375 0.25 0
0.09375 0.21875 0
0.125 0.21875 0
0.09375 0.25 0
0.125 0.25 0
0.125 0.125 0
0.15625 0.125 0
0.125 0.15625 0
0.15625 0.15625 0
0.15625 0.125 0
0.1875 0.125 0
0.15625 0.15625 0
0.1875 0.15625 0
0.125 0.15625 0
0.15625 0.15625 0
0.125 0.1875 0
0.15625 0.1875 0
0.15625 0.15625 0
0.1875 0.15625 0
0.15625 0.1875 0
0.1875 0.1875 0
0.1875 0.125 0
0.21875 0.125 0
0.1875 0.15625 0
0.21875 0.15625 0
0.21875 0.125 0
0.25 0.125 0
0.21875 0.15625 0
0.25 0.15625 0
0.1875 0.15625 0
0.21875 0.15625 0
0.1875 0.1875 0
0.21875 0.1875 0
0.21875 0.15625 0
0.25 0.15625 0
0.21875 0.1875 0
0.25 0.1875 0
0.125 0.1875 0
0.15625 0.1875 0
0.125 0.21875 0
0.15625 0.21875 0
0.15625 0.1875 0
0.1875 0.1875 0
0.15625 0.21875 0
0.1875 0.21875 0
0.125 0.21875 0
0.15625 0.21875 0
0.125 0.25 0
0.15625 0.25 0
0.15625 0.21875 0
0.1875 0.21875 0
0.15625 0.25 0
0.1875 0.25 0
0.1875 0.1875 0
0.21875 0.1875 0
0.1875 0.21875 0
0.21875 0.21875 0
0.21875 0.1875 0
0.25 0.1875 0
0.21875 0.21875 0
0.25 0.21875 0
0.1875 0.21875 0
0.21875 0.21875 0
0.1875 0.25 0
0.21875 0.25 0
0.21875 0.21875 0
0.25 0.21875 0
0.21875 0.25 0
0.25 0.25 0
0.25 0 0
0.28125 0 0
0.25 0.03125 0
0.28125 0.03125 0
0.28125 0 0
0.3125 0 0
0.28125 0.03125 0
0.3125 0.03125 0
0.25 0.03125 0
0.28125 0.03125 0
0.25 0.0625 0
0.28125 0.0625 0
0.28125 0.03125 0
0.3125 0.03125 0
0.28125 0.0625 0
0.3125 0.0625 0
0.3125 0 0
0.34375 0 0
0.3125 0.03125 0
0.34375 0.03125 0
0.34375 0 0
0.375 0 0
0.34375 0.03125 0
0.375 0.03125 0
0.3125 0.03125 0
0.34375 0.03125 0
0.3125 0.0625 0
0.34375 0.0625 0
0.34375 0.03125 0
0.375 0.03125 0
0.34375 0.0625 0
0.375 0.0625 0
0.25 0.0625 0
0.28125 0.0625 0
0.25 0.09375 0
0.28125 0.09375 0
0.28125 0.0625 0
0.3125 0.0625 0
0.28125 0.09375 0
0.3125 0.09375 0
0.25 0.09375 0
0.28125 0.09375 0
0.25 0.125 0
0.28125 0.125 0
0.28125 0.09375 0
0.3125 0.09375 0
0.28125 0.125 0
0.3125 0.125 0
0.3125 0.0625 0
0.34375 0.0625 0
0.3125 0.09375 0
0.34375 0.09375 0
0.34375 0.0625 0
0.375 0.0625 0
0.34375 0.09375 0
0.375 0.09375 0
0.3125 0.09375 0
0.34375 0.09375 0
0.3125 0.125 0
0.34375 0.125 0
0.34375 0.09375 0
0.375 0.09375 0
0.34375 0.125 0
0.375 0.125 0
0.375 0 0
0.40625 0 0
0.375 0.03125 0
0.40625 0.03125 0
0.40625 0 0
0.4375 0 0
0.40625 0.03125 0
0.4375 0.03125 0
0.375 0.03125 0
0.40625 0.03125 0
0.375 0.0625 0
0.40625 0.0625 0
0.40625 0.03125 0
0.4375 0.03125 0
0.40625 0.0625 0
0.4375 0.0625 0
0.4375 0 0
0.46875 0 0
0.4375 0.03125 0
0.46875 0.03125 0
0.46875 0 0
0.5 0 0
0.46875 0.03125 0
0.5 0.03125 0
0.4375 0.03125 0
0.46875 0.03125 0
0.4375 0.0625 0
0.46875 0.0625 0
0.46875 0.03125 0
0.5 0.03125 0
0.46875 0.0625 0
0.5 0.0625 0
0.375 0.0625 0
0.40625 0.0625 0
0.375 0.09375 0
0.40625 0.09375 0
0.40625 0.0625 0
0.4375 0.0625 0
0.40625 0.09375 0
0.4375 0.09375 0
0.375 0.09375 0
0.40625 0.09375 0
0.375 0.125 0
0.40625 0.125 0
0.40625 0.09375 0
0.4375 0.09375 0
0.40625 0.125 0
0.4375 0.125 0
0.4375 0.0625 0
0.46875 0.0625 0
0.4375 0.09375 0
0.46875 0.09375 0
0.46875 0.0625 0
0.5 0.0625 0
0.46875 0.09375 0
0.5 0.09375 0
0.4375 0.09375 0
0.46875 0.09375 0
0.4375 0.125 0
0.46875 0.125 0
0.46875 0.09375 0
0.5 0.09375 0
0.46875 0.125 0
0.5 0.125 0
0.25 0.125 0
0.28125 0.125 0
0.25 0.15625 0
0.28125 0.15625 0
0.28125 0.125 0
0.3125 0.125 0
0.28125 0.15625 0
0.3125 0.15625 0
0.25 0.15625 0
0.28125 0.15625 0
0.25 0.1875 0
0.28125 0.1875 0
0.28125 0.15625 0
0.3125 0.15625 0
0.28125 0.1875 0
0.3125 0.1875 0
0.3125 0.125 0
0.34375 0.125 0
0.3125 0.15625 0
0.34375 0.15625 0
0.34375 0.125 0
0.375 0.125 0
0.34375 0.15625 0
0.375 0.15625 0
0.3125 0.15625 0
0.34375 0.15625 0
0.3125 0.1875 0
0.34375 0.1875 0
0.34375 0.15625 0
0.375 0.15625 0
0.34375 0.1875 0
0.375 0.1875 0
0.25 0.1875 0
0.28125 0.1875 0
0.25 0.21875 0
0.28125 0.21875 0
0.28125 0.1875 0
0.3125 0.1875 0
0.28125 0.21875 0
0.3125 0.21875 0
0.25 0.21875 0
0.28125 0.21875 0
0.25 0.25 0
0.28125 0.25 0
0.28125 0.21875 0
0.3125 0.21875 0
0.28125 0.25 0
0.3125 0.25 0
0.3125 0.1875 0
0.34375 0.1875 0
0.3125 0.21875 0
0.34375 0.21875 0
0.34375 0.1875 0
0.375 0.1875 0
0.34375 0.21875 0
0.375 0.21875 0
0.3125 0.21875 0
0.34375 0.21875 0
0.3125 0.25 0
0.34375 0.25 0
0.34375 0.21875 0
0.375 0.21875 0
0.34375 0.25 0
0.375 0.25 0
0.375 0.125 0
0.40625 0.125 0
0.375 0.15625 0
0.40625 0.15625 0
0.40625 0.125 0
0.4375 0.125 0
0.40625 0.15625 0
0.4375 0.15625 0
0.375 0.15625 0
0.40625 0.15625 0
0.375 0.1875 0
0.40625 0.1875 0
0.40625 0.15625 0
0.4375 0.15625 0
0.40625 0.1875 0
0.4375 0.1875 0
0.4375 0.125 0
0.46875 0.125 0
0.4375 0.15625 0
0.46875 0.15625 0
0.46875 0.125 0
0.5 0.125 0
0.46875 0.15625 0
0.5 0.15625 0
0.4375 0.15625 0
0.46875 0.15625 0
0.4375 0.1875 0
0.46875 0.1875 0
0.46875 0.15625 0
0.5 0.15625 0
0.46875 0.1875 0
0.5 0.1875 0
0.375 0.1875 0
0.40625 0.1875 0
0.375 0.21875 0
0.40625 0.21875 0
0.40625 0.1875 0
0.4375 0.1875 0
0.40625 0.21875 0
0.4375 0.21875 0
0.375 0.21875 0
0.40625 0.21875 0
0.375 0.25 0
0.40625 0.25 0
0.40625 0.21875 0
0.4375 0.21875 0
0.40625 0.25 0
0.4375 0.25 0
0.4375 0.1875 0
0.46875 0.1875 0
0.4375 0.21875 0
0.46875 0.21875 0
0.46875 0.1875 0
0.5 0.1875 0
0.46875 0.21875 0
0.5 0.21875 0
0.4375 0.21875 0
0.46875 0.21875 0
0.4375 0.25 0
0.46875 0.25 0
0.46875 0.21875 0
0.5 0.21875 0
0.46875 0.25 0
0.5 0.25 0
0 0.25 0
0.03125 0.25 0
0 0.28125 0
0.03125 0.28125 0
0.03125 0.25 0
0.0625 0.25 0
0.03125 0.28125 0
0.0625 0.28125 0
0 0.28125 0
0.03125 0.28125 0
0 0.3125 0
0.03125 0.3125 0
0.03125 0.28125 0
0.0625 0.28125 0
0.03125 0.3125 0
0.0625 0.3125 0
0.0625 0.25 0
0.09375 0.25 0
0.0625 0.28125 0
0.09375 0.28125 0
0.09375 0.25 0
0.125 0.25 0
0.09375 0.28125 0
0.125 0.28125 0
0.0625 0.28125 0
0.09375 0.28125 0
0.0625 0.3125 0
0.09375 0.3125 0
0.09375 0.28125 0
0.125 0.28125 0
0.09375 0.3125 0
0.125 0.3125 0
0 0.3125 0
0.03125 0.3125 0
0 0.34375 0
0.03125 0.34375 0
0.03125 0.3125 0
0.0625 0.3125 0
0.03125 0.34375 0
0.0625 0.34375 0
0 0.34375 0
0.03125 0.34375 0
0 0.375 0
0.03125 0.375 0
0.03125 0.34375 0
0.0625 0.34375 0
0.03125 0.375 0
0.0625 0.375 0
0.0625 0.3125 0
0.09375 0.3125 0
0.0625 0.34375 0
0.09375 0.34375 0
0.09375 0.3125 0
0.125 0.3125 0
0.09375 0.34375 0
0.125 0.34375 0
0.0625 0.34375 0
0.09375 0.34375 0
0.0625 0.375 0
0.09375 0.375 0
0.09375 0.34375 0
0.125 0.34375 0
0.09375 0.375 0
0.125 0.375 0
0.125 0.25 0
0.15625 0.25 0
0.125 0.28125 0
0.15625 0.28125 0
0.15625 0.25 0
0.1875 0.25 0
0.15625 0.28125 0
0.1875 0.28125 0
0.125 0.28125 0
0.15625 0.28125 0
0.125 0.3125 0
0.15625 0.3125 0
0.15625 0.28125 0
0.1875 0.28125 0
0.15625 0.3125 0
0.1875 0.3125 0
0.1875 0.25 0
0.21875 0.25 0
0.1875 0.28125 0
0.21875 0.28125 0
0.21875 0.25 0
0.25 0.25 0
0.21875 0.28125 0
0.25 0.28125 0
0.1875 0.28125 0
0.21875 0.28125 0
0.1875 0.3125 0
0.21875 0.3125 0
0.21875 0.28125 0
0.25 0.28125 0
0.21875 0.3125 0
0.25 0.3125 0
0.125 0.3125 0
0.15625 0.3125 0
0.125 0.34375 0
0.15625 0.34375 0
0.15625 0.3125 0
0.1875 0.3125 0
0.15625 0.34375 0
0.1875 0.34375 0
0.125 0.34375 0
[...]
POINT_DATA 4096
SCALARS p double 1
LOOKUP_TABLE default
-1.65429e-05 7.44876e-05 -0.000120786 -2.6347e-05 7.44876e-05 0.000317168 -2.6347e-05 0.00010041 -0.000120786 -2.6347e-05 -0.000367615 -0.00015386 -2.6347e-05 0.00010041 -0.00015386 -2.38051e-05 0.000317168 0.000540624 0.00010041 0.000216789 0.000540624 0.000653761 0.000216789 0.000262216 0.00010041 0.000216789 -2.38051e-05 8.25107e-05 0.000216789 0.000262216 8.25107e-05 0.000106414 -0.000367615 -0.00015386 -0.000601191 -0.000271752 -0.00015386 -2.38051e-05 -0.000271752 -0.00012338 -0.000601191 -0.000271752 -0.00073189 -0.000318638 -0.000271752 -0.00012338 -0.000318638 -0.00013665 -2.38051e-05 8.25107e-05 -0.00012338 -1.23622e-05 8.25107e-05 0.000106414 -1.23622e-05 3.2429e-06 -0.00012338 -1.23622e-05 -0.00013665 -6.33196e-06 -1.23622e-05 3.2429e-06 -6.33196e-06 1.43568e-05 0.000653761 0.000621182 0.000262216 0.000211474 0.000621182 0.000436074 0.000211474 5.38266e-05 0.000262216 0.000211474 0.000106414 3.41065e-05 0.000211474 5.38266e-05 3.41065e-05 -0.000145234 0.000436074 0.000103298 5.38266e-05 -0.000211826 0.000103298 -0.000367704 -0.000211826 -0.000581852 5.38266e-05 -0.000211826 -0.000145234 -0.000434134 -0.000211826 -0.000581852 -0.000434134 -0.000830732 0.000106414 3.41065e-05 3.2429e-06 -7.5199e-05 3.41065e-05 -0.000145234 -7.5199e-05 -0.00025459 3.2429e-06 -7.5199e-05 1.43568e-05 -6.40448e-05 -7.5199e-05 -0.00025459 -6.40448e-05 -0.000244582 -0.000145234 -0.000434134 -0.00025459 -0.000536335 -0.000434134 -0.000830732 -0.000536335 -0.000919163 -0.00025459 -0.000536335 -0.000244582 -0.000526725 -0.000536335 -0.000919163 -0.000526725 -0.00090873 -0.00073189 -0.000318638 -0.000720774 -0.000264981 -0.000318638 -0.00013665 -0.000264981 -4.36863e-05 -0.000720774 -0.000264981 -0.000553542 -9.35111e-05 -0.000264981 -4.36863e-05 -9.35111e-05 0.000174279 -0.00013665 -6.33196e-06 -4.36863e-05 0.000106531 -6.33196e-06 1.43568e-05 0.000106531 0.000137408 -4.36863e-05 0.000106531 0.000174279 0.000341608 0.000106531 0.000137408 0.000341608 0.000384326 -0.000553542 -9.35111e-05 -0.00022449 0.000205699 -9.35111e-05 0.000174279 0.000205699 0.00052975 -0.00022449 0.000205699 0.000270287 0.000640094 0.000205699 0.00052975 0.000640094 0.00103318 0.000174279 0.000341608 0.00052975 0.00071036 0.000341608 0.000384326 0.00071036 0.000764879 0.00052975 0.00071036 0.00103318 0.00122369 0.00071036 0.000764879 0.00122369 0.00128949 1.43568e-05 -6.40448e-05 0.000137408 6.27424e-05 -6.40448e-05 -0.000244582 6.27424e-05 -0.000117263 0.000137408 6.27424e-05 0.000384326 0.000314111 6.27424e-05 -0.000117263 0.000314111 0.000133892 -0.000244582 -0.000526725 -0.000117263 -0.000400363 -0.000526725 -0.00090873 -0.000400363 -0.000784052 -0.000117263 -0.000400363 0.000133892 -0.000152902 -0.000400363 -0.000784052 -0.000152902 -0.000543035 0.000384326 0.000314111 0.000764879 0.00069822 0.000314111 0.000133892 0.00069822 0.000515904 0.000764879 0.00069822 0.00128949 0.00122464 0.00069822 0.000515904 0.00122464 0.00103753 0.000133892 -0.000152902 0.000515904 0.000222051 -0.000152902 -0.000543035 0.000222051 -0.000179473 0.000515904 0.000222051 0.00103753 0.000732616 0.000222051 -0.000179473 0.000732616 0.000314312 -0.000367704 -0.000966184 -0.000581852 -0.00105021 -0.000966184 -0.00168117 -0.00105021 -0.00160963 -0.000581852 -0.00105021 -0.000830732 -0.00133029 -0.00105021 -0.00160963 -0.00133029 -0.00192623 -0.00168117 -0.00250153 -0.00160963 -0.00225197 -0.00250153 -0.00341565 -0.00225197 -0.00296834 -0.00160963 -0.00225197 -0.00192623 -0.00261063 -0.00225197 -0.00296834 -0.00261063 -0.00337436 -0.000830732 -0.00133029 -0.000919163 -0.00139943 -0.00133029 -0.00192623 -0.00139943 -0.00197171 -0.000919163 -0.00139943 -0.00090873 -0.00138716 -0.00139943 -0.00197171 -0.00138716 -0.00195707 -0.00192623 -0.00261063 -0.00197171 -0.00262909 -0.00261063 -0.00337436 -0.00262909 -0.00336329 -0.00197171 -0.00262909 -0.00195707 -0.00261208 -0.00262909 -0.00336329 -0.00261208 -0.00334435 -0.00341565 -0.00441106 -0.00296834 -0.00374889 -0.00441106 -0.00547411 -0.00374889 -0.00458275 -0.00296834 -0.00374889 -0.00337436 -0.00420706 -0.00374889 -0.00458275 -0.00420706 -0.00509713 -0.00547411 -0.0065898 -0.00458275 -0.00545798 -0.0065898 -0.00774177 -0.00545798 -0.00636154 -0.00458275 -0.00545798 -0.00509713 -0.00603177 -0.00545798 -0.00636154 -0.00603177 -0.00699698 -0.00337436 -0.00420706 -0.00336329 -0.00416463 -0.00420706 -0.00509713 -0.00416463 -0.00502214 -0.00336329 -0.00416463 -0.00334435 -0.00414463 -0.00416463 -0.00502214 -0.00414463 -0.00500218 -0.00509713 -0.00603177 -0.00502214 -0.00592355 -0.00603177 -0.00699698 -0.00592355 -0.00685537 -0.00502214 -0.00592355 -0.00500218 -0.00590496 -0.00592355 -0.00685537 -0.00590496 -0.00683954 -0.00090873 -0.00138716 -0.000784052 -0.00126478 -0.00138716 -0.00195707 -0.00126478 -0.00183783 -0.000784052 -0.00126478 -0.000543035 -0.00103272 -0.00126478 -0.00183783 -0.00103272 -0.00161726 -0.00195707 -0.00261208 -0.00183783 -0.00249711 -0.00261208 -0.00334435 -0.00249711 -0.00323513 -0.00183783 -0.00249711 -0.00161726 -0.00229072 -0.00249711 -0.00323513 -0.00229072 -0.00304579 -0.000543035 -0.00103272 -0.000179473 -0.00068463 -0.00103272 -0.00161726 -0.00068463 -0.00128864 -0.000179473 -0.00068463 0.000314312 -0.000213122 -0.00068463 -0.00128864 -0.000213122 -0.000844814 -0.00161726 -0.00229072 -0.00128864 -0.00198566 -0.00229072 -0.00304579 -0.00198566 -0.00276852 -0.00128864 -0.00198566 -0.000844814 -0.00157498 -0.00198566 -0.00276852 -0.00157498 -0.00239654 -0.00334435 -0.00414463 -0.00323513 -0.00404294 -0.00414463 -0.00500218 -0.00404294 -0.00491007 -0.00323513 -0.00404294 -0.00304579 -0.00387371 -0.00404294 -0.00491007 -0.00387371 -0.0047642 -0.00500218 -0.00590496 -0.00491007 -0.00582462 -0.00590496 -0.00683954 -0.00582462 -0.00677318 -0.00491007 -0.00582462 -0.0047642 -0.00570537 -0.00582462 -0.00677318 -0.00570537 -0.00668367 -0.00304579 -0.00387371 -0.00276852 -0.00362859 -0.00387371 -0.0047642 -0.00362859 -0.00455563 -0.00276852 -0.00362859 -0.00239654 -0.00330096 -0.00362859 -0.00455563 -0.00330096 -0.00427802 -0.0047642 -0.00570537 -0.00455563 -0.00553768 -0.00570537 -0.00668367 -0.00553768 -0.00656099 -0.00455563 -0.00553768 -0.00427802 -0.00531561 -0.00553768 -0.00656099 -0.00531561 -0.00639975 0.000270287 0.000640094 0.00093622 0.00121717 0.000640094 0.00103318 0.00121717 0.00169482 0.00093622 0.00121717 0.00178167 0.00194595 0.00121717 0.00169482 0.00194595 0.00252615 0.00103318 0.00122369 0.00169482 0.00189265 0.00122369 0.00128949 0.00189265 0.00196931 0.00169482 0.00189265 0.00252615 0.00272947 0.00189265 0.00196931 0.00272947 0.00281695 0.00178167 0.00194595 0.00281846 0.00283763 0.00194595 0.00252615 0.00283763 0.00354087 0.00281846 0.00283763 0.00406208 0.00390627 0.00283763 0.00354087 0.00390627 0.00475552 0.00252615 0.00272947 0.00354087 0.00374853 0.00272947 0.00281695 0.00374853 0.00384724 0.00354087 0.00374853 0.00475552 0.00496685 0.00374853 0.00384724 0.00496685 0.00507761 0.00128949 0.00122464 0.00196931 0.00190421 0.00122464 0.00103753 0.00190421 0.00170921 0.00196931 0.00190421 0.00281695 0.00274955 0.00190421 0.00170921 0.00274955 0.00254339 0.00103753 0.000732616 0.00170921 0.00138889 0.000732616 0.000314312 0.00138889 0.000948177 0.00170921 0.00138889 0.00254339 0.00220313 0.00138889 0.000948177 0.00220313 0.00173427 0.00281695 0.00274955 0.00384724 0.00377557 0.00274955 0.00254339 0.00377557 0.00355495 0.00384724 0.00377557 0.00507761 0.00499985 0.00377557 0.00355495 0.00499985 0.00476146 0.00254339 0.00220313 0.00355495 0.00319015 0.00220313 0.00173427 0.00319015 0.00268736 0.00355495 0.00319015 0.00476146 0.00436751 0.00319015 0.00268736 0.00436751 0.00382503 0.00406208 0.00390627 0.00553185 0.00516905 0.00390627 0.00475552 0.00516905 0.0061901 0.00553185 0.00516905 0.00725112 0.00664673 0.00516905 0.0061901 0.00664673 0.00786869 0.00475552 0.00496685 0.0061901 0.0064048 0.00496685 0.00507761 0.0064048 0.00652881 0.0061901 0.0064048 0.00786869 0.00808678 0.0064048 0.00652881 0.00808678 0.00822551 0.00725112 0.00664673 0.00924774 0.00836433 0.00664673 0.00786869 0.00836433 0.00982037 0.00924774 0.00836433 0.011555 0.0103522 0.00836433 0.00982037 0.0103522 0.0120804 0.00786869 0.00808678 0.00982037 0.0100421 0.00808678 0.00822551 0.0100421 0.0101971 0.00982037 0.0100421 0.0120804 0.0123063 0.0100421 0.0101971 0.0123063 0.0124788 0.00507761 0.00499985 0.00652881 0.00644317 0.00499985 0.00476146 0.00644317 0.00618363 0.00652881 0.00644317 0.00822551 0.00813006 0.00644317 0.00618363 0.00813006 0.00784576 0.00476146 0.00436751 0.00618363 0.00575581 0.00436751 0.00382503 0.00575581 0.00516788 0.00618363 0.00575581 0.00784576 0.00737912 0.00575581 0.00516788 0.00737912 0.00673982 0.00822551 0.00813006 0.0101971 0.0100895 0.00813006 0.00784576 0.0100895 0.00977621 0.0101971 0.0100895 0.0124788 0.0123557 0.0100895 0.00977621 0.0123557 0.0120081 0.00784576 0.00737912 0.00977621 0.00926525 0.00737912 0.00673982 0.00926525 0.00856825 0.00977621 0.00926525 0.0120081 0.0114462 0.00926525 0.00856825 0.0114462 0.0106844 0.000314312 -0.000213122 0.000948177 0.000391536 -0.000213122 -0.000844814 0.000391536 -0.000276098 0.000948177 0.000391536 0.00173427 0.00114147 0.000391536 -0.000276098 0.00114147 0.000429704 -0.000844814 -0.00157498 -0.000276098 -0.00104898 -0.00157498 -0.00239654 -0.00104898 -0.00192014 -0.000276098 -0.00104898 0.000429704 -0.00039536 -0.00104898 -0.00192014 -0.00039536 -0.00132691 0.00173427 0.00114147 0.00268736 0.00205149 0.00114147 0.000429704 0.00205149 0.00128753 0.00268736 0.00205149 0.00382503 0.00313925 0.00205149 0.00128753 0.00313925 0.00231523 0.000429704 -0.00039536 0.00128753 0.000400992 -0.00039536 -0.00132691 0.000400992 -0.000601549 0.00128753 0.000400992 0.00231523 0.00135821 0.000400992 -0.000601549 0.00135821 0.000274455 -0.00239654 -0.00330096 -0.00192014 -0.00288112 -0.00330096 -0.00427802 -0.00288112 -0.00392171 -0.00192014 -0.00288112 -0.00132691 -0.00235663 -0.00288112 -0.00392171 -0.00235663 -0.00347438 -0.00427802 -0.00531561 -0.00392171 -0.00502974 -0.00531561 -0.00639975 -0.00502974 -0.00619089 -0.00392171 -0.00502974 -0.00347438 -0.00466793 -0.00502974 -0.00619089 -0.00466793 -0.00592274 -0.00132691 -0.00235663 -0.000601549 -0.001712 -0.00235663 -0.00347438 -0.001712 -0.00292043 -0.000601549 -0.001712 0.000274455 -0.000928355 -0.001712 -0.00292043 -0.000928355 -0.00224066 -0.00347438 -0.00466793 -0.00292043 -0.00421468 -0.00466793 -0.00592274 -0.00421468 -0.00558012 -0.00292043 -0.00421468 -0.00224066 -0.00365065 -0.00421468 -0.00558012 -0.00365065 -0.00514379 0.00382503 0.00313925 0.00516788 0.00442549 0.00313925 0.00231523 0.00442549 0.00353372 0.00516788 0.00442549 0.00673982 0.00593409 0.00442549 0.00353372 0.00593409 0.00496711 0.00231523 0.00135821 0.00353372 0.00249757 0.00135821 0.000274455 0.00249757 0.00132285 0.00353372 0.00249757 0.00496711 0.0038436 0.00249757 0.00132285 0.0038436 0.00256879 0.00673982 0.00593409 0.00856825 0.00769231 0.00593409 0.00496711 0.00769231 0.00664277 0.00856825 0.00769231 0.0106844 0.00973078 0.00769231 0.00664277 0.00973078 0.00859116 0.00496711 0.0038436 0.00664277 0.00542408 0.0038436 0.00256879 0.00542408 0.00404076 0.00664277 0.00542408 0.00859116 0.00726973 0.00542408 0.00404076 0.00726973 0.00577027 0.000274455 -0.000928355 0.00132285 1.66358e-05 -0.000928355 -0.00224066 1.66358e-05 -0.00141218 0.00132285 1.66358e-05 0.00256879 0.00114894 1.66358e-05 -0.00141218 0.00114894 -0.000408039 -0.00224066 -0.00365065 -0.00141218 -0.00295242 -0.00365065 -0.00514379 -0.00295242 -0.00459006 -0.00141218 -0.00295242 -0.000408039 -0.00209203 -0.00295242 -0.00459006 -0.00209203 -0.00389005 0.00256879 0.00114894 0.00404076 0.00249808 0.00114894 -0.000408039 0.00249808 0.000802654 0.00404076 0.00249808 0.00577027 0.0040969 0.00249808 0.000802654 0.0040969 0.0022546 -0.000408039 -0.00209203 0.000802654 -0.00103697 -0.00209203 -0.00389005 -0.00103697 -0.00300951 0.000802654 -0.00103697 0.0022546 0.000249859 -0.00103697 -0.00300951 0.000249859 -0.00190854 -0.00774177 -0.00891232 -0.00636154 -0.00727936 -0.00891232 -0.0100825 -0.00727936 -0.00819639 -0.00636154 -0.00727936 -0.00699698 -0.00797762 -0.00727936 -0.00819639 -0.00797762 -0.00895745 -0.0100825 -0.0112324 -0.00819639 -0.00909678 -0.0112324 -0.0123412 -0.00909678 -0.00996417 -0.00819639 -0.00909678 -0.00895745 -0.00991943 -0.00909678 -0.00996417 -0.00991943 -0.0108459 -0.00699698 -0.00797762 -0.00685537 -0.00780294 -0.00797762 -0.00895745 -0.00780294 -0.00875052 -0.00685537 -0.00780294 -0.00683954 -0.0077913 -0.00780294 -0.00875052 -0.0077913 -0.00874439 -0.00895745 -0.00991943 -0.00875052 -0.00968149 -0.00991943 -0.0108459 -0.00968149 -0.0105787 -0.00875052 -0.00968149 -0.00874439 -0.00968203 -0.00968149 -0.0105787 -0.00968203 -0.0105868 -0.0123412 -0.0133878 -0.00996417 -0.0107819 -0.0133878 -0.0143506 -0.0107819 -0.0115332 -0.00996417 -0.0107819 -0.0108459 -0.0117191 -0.0107819 -0.0115332 -0.0117191 -0.0125213 -0.0143506 -0.0152083 -0.0115332 -0.0122019 -0.0152083 -0.0159403 -0.0122019 -0.0127725 -0.0115332 -0.0122019 -0.0125213 -0.0132353 -0.0122019 -0.0127725 -0.0132353 -0.0138454 -0.0108459 -0.0117191 -0.0105787 -0.0114247 -0.0117191 -0.0125213 -0.0114247 -0.0122024 -0.0105787 -0.0114247 -0.0105868 -0.011441 -0.0114247 -0.0122024 -0.011441 -0.0122271 -0.0125213 -0.0132353 -0.0122024 -0.0128952 -0.0132353 -0.0138454 -0.0128952 -0.0134882 -0.0122024 -0.0128952 -0.0122271 -0.0129282 -0.0128952 -0.0134882 -0.0129282 -0.0135292 -0.00683954 -0.0077913 -0.00677318 -0.00774099 -0.0077913 -0.00874439 -0.00774099 -0.00871197 -0.00677318 -0.00774099 -0.00668367 -0.00768406 -0.00774099 -0.00871197 -0.00768406 -0.00869003 -0.00874439 -0.00968203 -0.00871197 -0.00966902 -0.00968203 -0.0105868 -0.00966902 -0.0105942 -0.00871197 -0.00966902 -0.00869003 -0.00968384 -0.00966902 -0.0105942 -0.00968384 -0.0106467 -0.00668367 -0.00768406 -0.00656099 -0.0076101 -0.00768406 -0.00869003 -0.0076101 -0.00866787 -0.00656099 -0.0076101 -0.00639975 -0.0075144 -0.0076101 -0.00866787 -0.0075144 -0.00864164 -0.00869003 -0.00968384 -0.00866787 -0.00971564 -0.00968384 -0.0106467 -0.00971564 -0.0107334 -0.00866787 -0.00971564 -0.00864164 -0.00976166 -0.00971564 -0.0107334 -0.00976166 -0.010853 -0.0105868 -0.011441 -0.0105942 -0.0114691 -0.011441 -0.0122271 -0.0114691 -0.0122755 -0.0105942 -0.0114691 -0.0106467 -0.0115592 -0.0114691 -0.0122755 -0.0115592 -0.0124018 -0.0122271 -0.0129282 -0.0122755 -0.0129958 -0.0129282 -0.0135292 -0.0129958 -0.0136139 -0.0122755 -0.0129958 -0.0124018 -0.0131555 -0.0129958 -0.0136139 -0.0131555 -0.013803 -0.0106467 -0.0115592 -0.0107334 -0.0117004 -0.0115592 -0.0124018 -0.0117004 -0.0125953 -0.0107334 -0.0117004 -0.010853 -0.0118929 -0.0117004 -0.0125953 -0.0118929 -0.0128579 -0.0124018 -0.0131555 -0.0125953 -0.0133974 -0.0131555 -0.013803 -0.0133974 -0.0140871 -0.0125953 -0.0133974 -0.0128579 -0.0137247 -0.0133974 -0.0140871 -0.0137247 -0.0144712 -0.0159403 -0.0165267 -0.0127725 -0.0132313 -0.0165267 -0.0169498 -0.0132313 -0.0135679 -0.0127725 -0.0132313 -0.0138454 -0.0143381 -0.0132313 -0.0135679 -0.0143381 -0.0147037 -0.0169498 -0.0171981 -0.0135679 -0.0137732 -0.0171981 -0.0172589 -0.0137732 -0.0138629 -0.0135679 -0.0137732 -0.0147037 -0.0149355 -0.0137732 -0.0138629 -0.0149355 -0.0150473 -0.0138454 -0.0143381 -0.0134882 -0.0139686 -0.0143381 -0.0147037 -0.0139686 -0.0143279 -0.0134882 -0.0139686 -0.0135292 -0.014017 -0.0139686 -0.0143279 -0.014017 -0.0143825 -0.0147037 -0.0149355 -0.0143279 -0.0145595 -0.0149355 -0.0150473 -0.0145595 -0.0146768 -0.0143279 -0.0145595 -0.0143825 -0.0146184 -0.0145595 -0.0146768 -0.0146184 -0.014736 -0.0172589 -0.0171822 -0.0138629 -0.0137763 -0.0171822 -0.0169511 -0.0137763 -0.0139331 -0.0138629 -0.0137763 -0.0150473 -0.0149894 -0.0137763 -0.0139331 -0.0149894 -0.0151385 -0.0169511 -0.0158949 -0.0139331 -0.0124413 -0.0158949 -0.0173117 -0.0124413 -0.0156931 -0.0139331 -0.0124413 -0.0151385 -0.0136598 -0.0124413 -0.0156931 -0.0136598 -0.0162295 -0.0150473 -0.0149894 -0.0146768 -0.014623 -0.0149894 -0.0151385 -0.014623 -0.0147781 -0.0146768 -0.014623 -0.014736 -0.0146762 -0.014623 -0.0147781 -0.0146762 -0.0148064 -0.0151385 -0.0136598 -0.0147781 -0.0132604 -0.0136598 -0.0162295 -0.0132604 -0.0159845 -0.0147781 -0.0132604 -0.0148064 -0.0132579 -0.0132604 -0.0159845 -0.0132579 -0.0158166 -0.0135292 -0.014017 -0.0136139 -0.0141159 -0.014017 -0.0143825 -0.0141159 -0.0144916 -0.0136139 -0.0141159 -0.013803 -0.0143289 -0.0141159 -0.0144916 -0.0143289 -0.0147215 -0.0143825 -0.0146184 -0.0144916 -0.0147324 -0.0146184 -0.014736 -0.0147324 -0.0148481 -0.0144916 -0.0147324 -0.0147215 -0.0149707 -0.0147324 -0.0148481 -0.0149707 -0.0150851 -0.013803 -0.0143289 -0.0140871 -0.0146472 -0.0143289 -0.0147215 -0.0146472 -0.0150643 -0.0140871 -0.0146472 -0.0144712 -0.0150777 -0.0146472 -0.0150643 -0.0150777 -0.0155285 -0.0147215 -0.0149707 -0.0150643 -0.0153268 -0.0149707 -0.0150851 -0.0153268 -0.0154424 -0.0150643 -0.0153268 -0.0155285 -0.0158105 -0.0153268 -0.0154424 -0.0158105 -0.0159307 -0.014736 -0.0146762 -0.0148481 -0.0147763 -0.0146762 -0.0148064 -0.0147763 -0.0148831 -0.0148481 -0.0147763 -0.0150851 -0.0150004 -0.0147763 -0.0148831 -0.0150004 -0.0150856 -0.0148064 -0.0132579 -0.0148831 -0.0132905 -0.0132579 -0.0158166 -0.0132905 -0.0158188 -0.0148831 -0.0132905 -0.0150856 -0.0134448 -0.0132905 -0.0158188 -0.0134448 -0.0159596 -0.0150851 -0.0150004 -0.0154424 -0.0153451 -0.0150004 -0.0150856 -0.0153451 -0.0154122 -0.0154424 -0.0153451 -0.0159307 -0.0158218 -0.0153451 -0.0154122 -0.0158218 -0.0158729 -0.0150856 -0.0134448 -0.0154122 -0.0137128 -0.0134448 -0.0159596 -0.0137128 -0.0162472 -0.0154122 -0.0137128 -0.0158729 -0.0141022 -0.0137128 -0.0162472 -0.0141022 -0.01668 -0.00639975 -0.0075144 -0.00619089 -0.00738858 -0.0075144 -0.00864164 -0.00738858 -0.00860393 -0.00619089 -0.00738858 -0.00592274 -0.00722167 -0.00738858 -0.00860393 -0.00722167 -0.00854484 -0.00864164 -0.00976166 -0.00860393 -0.00981576 -0.00976166 -0.010853 -0.00981576 -0.0110008 -0.00860393 -0.00981576 -0.00854484 -0.00986954 -0.00981576 -0.0110008 -0.00986954 -0.0111704 -0.00592274 -0.00722167 -0.00558012 -0.00699916 -0.00722167 -0.00854484 -0.00699916 -0.00845098 -0.00558012 -0.00699916 -0.00514379 -0.00670232 -0.00699916 -0.00845098 -0.00670232 -0.00830471 -0.00854484 -0.00986954 -0.00845098 -0.00991133 -0.00986954 -0.0111704 -0.00991133 -0.0113524 -0.00845098 -0.00991133 -0.00830471 -0.00992521 -0.00991133 -0.0113524 -0.00992521 -0.0115336 -0.010853 -0.0118929 -0.0110008 -0.0121339 -0.0118929 -0.0128579 -0.0121339 -0.0131888 -0.0110008 -0.0121339 -0.0111704 -0.0124194 -0.0121339 -0.0131888 -0.0124194 -0.013587 -0.0128579 -0.0137247 -0.0131888 -0.0141391 -0.0137247 -0.0144712 -0.0141391 -0.0149593 -0.0131888 -0.0141391 -0.013587 -0.0146426 -0.0141391 -0.0149593 -0.0146426 -0.0155564 -0.0111704 -0.0124194 -0.0113524 -0.0127431 -0.0124194 -0.013587 -0.0127431 -0.0140495 -0.0113524 -0.0127431 -0.0115336 -0.0130951 -0.0127431 -0.0140495 -0.0130951 -0.0145708 -0.013587 -0.0146426 -0.0140495 -0.0152361 -0.0146426 -0.0155564 -0.0152361 -0.0162676 -0.0140495 -0.0152361 -0.0145708 -0.015919 -0.0152361 -0.0162676 -0.015919 -0.0170974 -0.00514379 -0.00670232 -0.00459006 -0.00630754 -0.00670232 -0.00830471 -0.00630754 -0.00808306 -0.00459006 -0.00630754 -0.00389005 -0.00578539 -0.00630754 -0.00808306 -0.00578539 -0.00775664 -0.00830471 -0.00992521 -0.00808306 -0.00988972 -0.00992521 -0.0115336 -0.00988972 -0.011695 -0.00808306 -0.00988972 -0.00775664 -0.00977646 -0.00988972 -0.011695 -0.00977646 -0.0118104 -0.00389005 -0.00578539 -0.00300951 -0.0051 -0.00578539 -0.00775664 -0.0051 -0.00728845 -0.00300951 -0.0051 -0.00190854 -0.00420844 -0.0051 -0.00728845 -0.00420844 -0.00663275 -0.00775664 -0.00977646 -0.00728845 -0.00954822 -0.00977646 -0.0118104 -0.00954822 -0.0118441 -0.00728845 -0.00954822 -0.00663275 -0.00915722 -0.00954822 -0.0118441 -0.00915722 -0.0117477 -0.0115336 -0.0130951 -0.011695 -0.0134601 -0.0130951 -0.0