# vtk DataFile Version 3.0
#This file was generated by the deal.II library on 2026/1/5 at 14:19:39
ASCII
DATASET UNSTRUCTURED_GRID

POINTS 4096 double
0 0 0
0.03125 0 0
0 0.03125 0
0.03125 0.03125 0
0.03125 0 0
0.0625 0 0
0.03125 0.03125 0
0.0625 0.03125 0
0 0.03125 0
0.03125 0.03125 0
0 0.0625 0
0.03125 0.0625 0
0.03125 0.03125 0
0.0625 0.03125 0
0.03125 0.0625 0
0.0625 0.0625 0
0.0625 0 0
0.09375 0 0
0.0625 0.03125 0
0.09375 0.03125 0
0.09375 0 0
0.125 0 0
0.09375 0.03125 0
0.125 0.03125 0
0.0625 0.03125 0
0.09375 0.03125 0
0.0625 0.0625 0
0.09375 0.0625 0
0.09375 0.03125 0
0.125 0.03125 0
0.09375 0.0625 0
0.125 0.0625 0
0 0.0625 0
0.03125 0.0625 0
0 0.09375 0
0.03125 0.09375 0
0.03125 0.0625 0
0.0625 0.0625 0
0.03125 0.09375 0
0.0625 0.09375 0
0 0.09375 0
0.03125 0.09375 0
0 0.125 0
0.03125 0.125 0
0.03125 0.09375 0
0.0625 0.09375 0
0.03125 0.125 0
0.0625 0.125 0
0.0625 0.0625 0
0.09375 0.0625 0
0.0625 0.09375 0
0.09375 0.09375 0
0.09375 0.0625 0
0.125 0.0625 0
0.09375 0.09375 0
0.125 0.09375 0
0.0625 0.09375 0
0.09375 0.09375 0
0.0625 0.125 0
0.09375 0.125 0
0.09375 0.09375 0
0.125 0.09375 0
0.09375 0.125 0
0.125 0.125 0
0.125 0 0
0.15625 0 0
0.125 0.03125 0
0.15625 0.03125 0
0.15625 0 0
0.1875 0 0
0.15625 0.03125 0
0.1875 0.03125 0
0.125 0.03125 0
0.15625 0.03125 0
0.125 0.0625 0
0.15625 0.0625 0
0.15625 0.03125 0
0.1875 0.03125 0
0.15625 0.0625 0
0.1875 0.0625 0
0.1875 0 0
0.21875 0 0
0.1875 0.03125 0
0.21875 0.03125 0
0.21875 0 0
0.25 0 0
0.21875 0.03125 0
0.25 0.03125 0
0.1875 0.03125 0
0.21875 0.03125 0
0.1875 0.0625 0
0.21875 0.0625 0
0.21875 0.03125 0
0.25 0.03125 0
0.21875 0.0625 0
0.25 0.0625 0
0.125 0.0625 0
0.15625 0.0625 0
0.125 0.09375 0
0.15625 0.09375 0
0.15625 0.0625 0
0.1875 0.0625 0
0.15625 0.09375 0
0.1875 0.09375 0
0.125 0.09375 0
0.15625 0.09375 0
0.125 0.125 0
0.15625 0.125 0
0.15625 0.09375 0
0.1875 0.09375 0
0.15625 0.125 0
0.1875 0.125 0
0.1875 0.0625 0
0.21875 0.0625 0
0.1875 0.09375 0
0.21875 0.09375 0
0.21875 0.0625 0
0.25 0.0625 0
0.21875 0.09375 0
0.25 0.09375 0
0.1875 0.09375 0
0.21875 0.09375 0
0.1875 0.125 0
0.21875 0.125 0
0.21875 0.09375 0
0.25 0.09375 0
0.21875 0.125 0
0.25 0.125 0
0 0.125 0
0.03125 0.125 0
0 0.15625 0
0.03125 0.15625 0
0.03125 0.125 0
0.0625 0.125 0
0.03125 0.15625 0
0.0625 0.15625 0
0 0.15625 0
0.03125 0.15625 0
0 0.1875 0
0.03125 0.1875 0
0.03125 0.15625 0
0.0625 0.15625 0
0.03125 0.1875 0
0.0625 0.1875 0
0.0625 0.125 0
0.09375 0.125 0
0.0625 0.15625 0
0.09375 0.15625 0
0.09375 0.125 0
0.125 0.125 0
0.09375 0.15625 0
0.125 0.15625 0
0.0625 0.15625 0
0.09375 0.15625 0
0.0625 0.1875 0
0.09375 0.1875 0
0.09375 0.15625 0
0.125 0.15625 0
0.09375 0.1875 0
0.125 0.1875 0
0 0.1875 0
0.03125 0.1875 0
0 0.21875 0
0.03125 0.21875 0
0.03125 0.1875 0
0.0625 0.1875 0
0.03125 0.21875 0
0.0625 0.21875 0
0 0.21875 0
0.03125 0.21875 0
0 0.25 0
0.03125 0.25 0
0.03125 0.21875 0
0.0625 0.21875 0
0.03125 0.25 0
0.0625 0.25 0
0.0625 0.1875 0
0.09375 0.1875 0
0.0625 0.21875 0
0.09375 0.21875 0
0.09375 0.1875 0
0.125 0.1875 0
0.09375 0.21875 0
0.125 0.21875 0
0.0625 0.21875 0
0.09375 0.21875 0
0.0625 0.25 0
0.09375 0.25 0
0.09375 0.21875 0
0.125 0.21875 0
0.09375 0.25 0
0.125 0.25 0
0.125 0.125 0
0.15625 0.125 0
0.125 0.15625 0
0.15625 0.15625 0
0.15625 0.125 0
0.1875 0.125 0
0.15625 0.15625 0
0.1875 0.15625 0
0.125 0.15625 0
0.15625 0.15625 0
0.125 0.1875 0
0.15625 0.1875 0
0.15625 0.15625 0
0.1875 0.15625 0
0.15625 0.1875 0
0.1875 0.1875 0
0.1875 0.125 0
0.21875 0.125 0
0.1875 0.15625 0
0.21875 0.15625 0
0.21875 0.125 0
0.25 0.125 0
0.21875 0.15625 0
0.25 0.15625 0
0.1875 0.15625 0
0.21875 0.15625 0
0.1875 0.1875 0
0.21875 0.1875 0
0.21875 0.15625 0
0.25 0.15625 0
0.21875 0.1875 0
0.25 0.1875 0
0.125 0.1875 0
0.15625 0.1875 0
0.125 0.21875 0
0.15625 0.21875 0
0.15625 0.1875 0
0.1875 0.1875 0
0.15625 0.21875 0
0.1875 0.21875 0
0.125 0.21875 0
0.15625 0.21875 0
0.125 0.25 0
0.15625 0.25 0
0.15625 0.21875 0
0.1875 0.21875 0
0.15625 0.25 0
0.1875 0.25 0
0.1875 0.1875 0
0.21875 0.1875 0
0.1875 0.21875 0
0.21875 0.21875 0
0.21875 0.1875 0
0.25 0.1875 0
0.21875 0.21875 0
0.25 0.21875 0
0.1875 0.21875 0
0.21875 0.21875 0
0.1875 0.25 0
0.21875 0.25 0
0.21875 0.21875 0
0.25 0.21875 0
0.21875 0.25 0
0.25 0.25 0
0.25 0 0
0.28125 0 0
0.25 0.03125 0
0.28125 0.03125 0
0.28125 0 0
0.3125 0 0
0.28125 0.03125 0
0.3125 0.03125 0
0.25 0.03125 0
0.28125 0.03125 0
0.25 0.0625 0
0.28125 0.0625 0
0.28125 0.03125 0
0.3125 0.03125 0
0.28125 0.0625 0
0.3125 0.0625 0
0.3125 0 0
0.34375 0 0
0.3125 0.03125 0
0.34375 0.03125 0
0.34375 0 0
0.375 0 0
0.34375 0.03125 0
0.375 0.03125 0
0.3125 0.03125 0
0.34375 0.03125 0
0.3125 0.0625 0
0.34375 0.0625 0
0.34375 0.03125 0
0.375 0.03125 0
0.34375 0.0625 0
0.375 0.0625 0
0.25 0.0625 0
0.28125 0.0625 0
0.25 0.09375 0
0.28125 0.09375 0
0.28125 0.0625 0
0.3125 0.0625 0
0.28125 0.09375 0
0.3125 0.09375 0
0.25 0.09375 0
0.28125 0.09375 0
0.25 0.125 0
0.28125 0.125 0
0.28125 0.09375 0
0.3125 0.09375 0
0.28125 0.125 0
0.3125 0.125 0
0.3125 0.0625 0
0.34375 0.0625 0
0.3125 0.09375 0
0.34375 0.09375 0
0.34375 0.0625 0
0.375 0.0625 0
0.34375 0.09375 0
0.375 0.09375 0
0.3125 0.09375 0
0.34375 0.09375 0
0.3125 0.125 0
0.34375 0.125 0
0.34375 0.09375 0
0.375 0.09375 0
0.34375 0.125 0
0.375 0.125 0
0.375 0 0
0.40625 0 0
0.375 0.03125 0
0.40625 0.03125 0
0.40625 0 0
0.4375 0 0
0.40625 0.03125 0
0.4375 0.03125 0
0.375 0.03125 0
0.40625 0.03125 0
0.375 0.0625 0
0.40625 0.0625 0
0.40625 0.03125 0
0.4375 0.03125 0
0.40625 0.0625 0
0.4375 0.0625 0
0.4375 0 0
0.46875 0 0
0.4375 0.03125 0
0.46875 0.03125 0
0.46875 0 0
0.5 0 0
0.46875 0.03125 0
0.5 0.03125 0
0.4375 0.03125 0
0.46875 0.03125 0
0.4375 0.0625 0
0.46875 0.0625 0
0.46875 0.03125 0
0.5 0.03125 0
0.46875 0.0625 0
0.5 0.0625 0
0.375 0.0625 0
0.40625 0.0625 0
0.375 0.09375 0
0.40625 0.09375 0
0.40625 0.0625 0
0.4375 0.0625 0
0.40625 0.09375 0
0.4375 0.09375 0
0.375 0.09375 0
0.40625 0.09375 0
0.375 0.125 0
0.40625 0.125 0
0.40625 0.09375 0
0.4375 0.09375 0
0.40625 0.125 0
0.4375 0.125 0
0.4375 0.0625 0
0.46875 0.0625 0
0.4375 0.09375 0
0.46875 0.09375 0
0.46875 0.0625 0
0.5 0.0625 0
0.46875 0.09375 0
0.5 0.09375 0
0.4375 0.09375 0
0.46875 0.09375 0
0.4375 0.125 0
0.46875 0.125 0
0.46875 0.09375 0
0.5 0.09375 0
0.46875 0.125 0
0.5 0.125 0
0.25 0.125 0
0.28125 0.125 0
0.25 0.15625 0
0.28125 0.15625 0
0.28125 0.125 0
0.3125 0.125 0
0.28125 0.15625 0
0.3125 0.15625 0
0.25 0.15625 0
0.28125 0.15625 0
0.25 0.1875 0
0.28125 0.1875 0
0.28125 0.15625 0
0.3125 0.15625 0
0.28125 0.1875 0
0.3125 0.1875 0
0.3125 0.125 0
0.34375 0.125 0
0.3125 0.15625 0
0.34375 0.15625 0
0.34375 0.125 0
0.375 0.125 0
0.34375 0.15625 0
0.375 0.15625 0
0.3125 0.15625 0
0.34375 0.15625 0
0.3125 0.1875 0
0.34375 0.1875 0
0.34375 0.15625 0
0.375 0.15625 0
0.34375 0.1875 0
0.375 0.1875 0
0.25 0.1875 0
0.28125 0.1875 0
0.25 0.21875 0
0.28125 0.21875 0
0.28125 0.1875 0
0.3125 0.1875 0
0.28125 0.21875 0
0.3125 0.21875 0
0.25 0.21875 0
0.28125 0.21875 0
0.25 0.25 0
0.28125 0.25 0
0.28125 0.21875 0
0.3125 0.21875 0
0.28125 0.25 0
0.3125 0.25 0
0.3125 0.1875 0
0.34375 0.1875 0
0.3125 0.21875 0
0.34375 0.21875 0
0.34375 0.1875 0
0.375 0.1875 0
0.34375 0.21875 0
0.375 0.21875 0
0.3125 0.21875 0
0.34375 0.21875 0
0.3125 0.25 0
0.34375 0.25 0
0.34375 0.21875 0
0.375 0.21875 0
0.34375 0.25 0
0.375 0.25 0
0.375 0.125 0
0.40625 0.125 0
0.375 0.15625 0
0.40625 0.15625 0
0.40625 0.125 0
0.4375 0.125 0
0.40625 0.15625 0
0.4375 0.15625 0
0.375 0.15625 0
0.40625 0.15625 0
0.375 0.1875 0
0.40625 0.1875 0
0.40625 0.15625 0
0.4375 0.15625 0
0.40625 0.1875 0
0.4375 0.1875 0
0.4375 0.125 0
0.46875 0.125 0
0.4375 0.15625 0
0.46875 0.15625 0
0.46875 0.125 0
0.5 0.125 0
0.46875 0.15625 0
0.5 0.15625 0
0.4375 0.15625 0
0.46875 0.15625 0
0.4375 0.1875 0
0.46875 0.1875 0
0.46875 0.15625 0
0.5 0.15625 0
0.46875 0.1875 0
0.5 0.1875 0
0.375 0.1875 0
0.40625 0.1875 0
0.375 0.21875 0
0.40625 0.21875 0
0.40625 0.1875 0
0.4375 0.1875 0
0.40625 0.21875 0
0.4375 0.21875 0
0.375 0.21875 0
0.40625 0.21875 0
0.375 0.25 0
0.40625 0.25 0
0.40625 0.21875 0
0.4375 0.21875 0
0.40625 0.25 0
0.4375 0.25 0
0.4375 0.1875 0
0.46875 0.1875 0
0.4375 0.21875 0
0.46875 0.21875 0
0.46875 0.1875 0
0.5 0.1875 0
0.46875 0.21875 0
0.5 0.21875 0
0.4375 0.21875 0
0.46875 0.21875 0
0.4375 0.25 0
0.46875 0.25 0
0.46875 0.21875 0
0.5 0.21875 0
0.46875 0.25 0
0.5 0.25 0
0 0.25 0
0.03125 0.25 0
0 0.28125 0
0.03125 0.28125 0
0.03125 0.25 0
0.0625 0.25 0
0.03125 0.28125 0
0.0625 0.28125 0
0 0.28125 0
0.03125 0.28125 0
0 0.3125 0
0.03125 0.3125 0
0.03125 0.28125 0
0.0625 0.28125 0
0.03125 0.3125 0
0.0625 0.3125 0
0.0625 0.25 0
0.09375 0.25 0
0.0625 0.28125 0
0.09375 0.28125 0
0.09375 0.25 0
0.125 0.25 0
0.09375 0.28125 0
0.125 0.28125 0
0.0625 0.28125 0
0.09375 0.28125 0
0.0625 0.3125 0
0.09375 0.3125 0
0.09375 0.28125 0
0.125 0.28125 0
0.09375 0.3125 0
0.125 0.3125 0
0 0.3125 0
0.03125 0.3125 0
0 0.34375 0
0.03125 0.34375 0
0.03125 0.3125 0
0.0625 0.3125 0
0.03125 0.34375 0
0.0625 0.34375 0
0 0.34375 0
0.03125 0.34375 0
0 0.375 0
0.03125 0.375 0
0.03125 0.34375 0
0.0625 0.34375 0
0.03125 0.375 0
0.0625 0.375 0
0.0625 0.3125 0
0.09375 0.3125 0
0.0625 0.34375 0
0.09375 0.34375 0
0.09375 0.3125 0
0.125 0.3125 0
0.09375 0.34375 0
0.125 0.34375 0
0.0625 0.34375 0
0.09375 0.34375 0
0.0625 0.375 0
0.09375 0.375 0
0.09375 0.34375 0
0.125 0.34375 0
0.09375 0.375 0
0.125 0.375 0
0.125 0.25 0
0.15625 0.25 0
0.125 0.28125 0
0.15625 0.28125 0
0.15625 0.25 0
0.1875 0.25 0
0.15625 0.28125 0
0.1875 0.28125 0
0.125 0.28125 0
0.15625 0.28125 0
0.125 0.3125 0
0.15625 0.3125 0
0.15625 0.28125 0
0.1875 0.28125 0
0.15625 0.3125 0
0.1875 0.3125 0
0.1875 0.25 0
0.21875 0.25 0
0.1875 0.28125 0
0.21875 0.28125 0
0.21875 0.25 0
0.25 0.25 0
0.21875 0.28125 0
0.25 0.28125 0
0.1875 0.28125 0
0.21875 0.28125 0
0.1875 0.3125 0
0.21875 0.3125 0
0.21875 0.28125 0
0.25 0.28125 0
0.21875 0.3125 0
0.25 0.3125 0
0.125 0.3125 0
0.15625 0.3125 0
0.125 0.34375 0
0.15625 0.34375 0
0.15625 0.3125 0
0.1875 0.3125 0
0.15625 0.34375 0
0.1875 0.34375 0
0.125 0.34375 0
[...]
POINT_DATA 4096
SCALARS p double 1
LOOKUP_TABLE default
1.86739e-07 8.07727e-05 -7.50913e-05 -2.37193e-06 8.07727e-05 0.000328134 -2.37193e-06 0.000136043 -7.50913e-05 -2.37193e-06 -0.000321417 -0.000136621 -2.37193e-06 0.000136043 -0.000136621 3.86691e-06 0.000328134 0.000610571 0.000136043 0.000295372 0.000610571 0.000830634 0.000295372 0.000414909 0.000136043 0.000295372 3.86691e-06 0.00015439 0.000295372 0.000414909 0.00015439 0.00025184 -0.000321417 -0.000136621 -0.000612255 -0.000295878 -0.000136621 3.86691e-06 -0.000295878 -0.000138353 -0.000612255 -0.000295878 -0.000851852 -0.000417524 -0.000295878 -0.000138353 -0.000417524 -0.000225264 3.86691e-06 0.00015439 -0.000138353 1.70833e-05 0.00015439 0.00025184 1.70833e-05 0.000101257 -0.000138353 1.70833e-05 -0.000225264 -4.42673e-05 1.70833e-05 0.000101257 -4.42673e-05 4.60241e-05 0.000830634 0.000939399 0.000414909 0.000463295 0.000939399 0.000916759 0.000463295 0.000422765 0.000414909 0.000463295 0.00025184 0.000277985 0.000463295 0.000422765 0.000277985 0.00021678 0.000916759 0.00075737 0.000422765 0.00028613 0.00075737 0.000463786 0.00028613 5.23324e-05 0.000422765 0.00028613 0.00021678 6.09491e-05 0.00028613 5.23324e-05 6.09491e-05 -0.000191742 0.00025184 0.000277985 0.000101257 0.000113708 0.000277985 0.00021678 0.000113708 4.40539e-05 0.000101257 0.000113708 4.60241e-05 5.80599e-05 0.000113708 4.40539e-05 5.80599e-05 -1.36275e-05 0.00021678 6.09491e-05 4.40539e-05 -0.000112066 6.09491e-05 -0.000191742 -0.000112066 -0.000356361 4.40539e-05 -0.000112066 -1.36275e-05 -0.000170134 -0.000112066 -0.000356361 -0.000170134 -0.000411876 -0.000851852 -0.000417524 -0.000987778 -0.000465468 -0.000417524 -0.000225264 -0.000465468 -0.000231821 -0.000987778 -0.000465468 -0.000991905 -0.000414925 -0.000465468 -0.000231821 -0.000414925 -0.000133175 -0.000225264 -4.42673e-05 -0.000231821 -2.08931e-05 -4.42673e-05 4.60241e-05 -2.08931e-05 8.36239e-05 -0.000231821 -2.08931e-05 -0.000133175 0.00010742 -2.08931e-05 8.36239e-05 0.00010742 0.000230401 -0.000991905 -0.000414925 -0.000847272 -0.00024898 -0.000414925 -0.000133175 -0.00024898 8.91926e-05 -0.000847272 -0.00024898 -0.000542183 4.51733e-05 -0.00024898 8.91926e-05 4.51733e-05 0.000450687 -0.000133175 0.00010742 8.91926e-05 0.000356828 0.00010742 0.000230401 0.000356828 0.000500007 8.91926e-05 0.000356828 0.000450687 0.000742328 0.000356828 0.000500007 0.000742328 0.000906437 4.60241e-05 5.80599e-05 8.36239e-05 0.00010226 5.80599e-05 -1.36275e-05 0.00010226 3.36245e-05 8.36239e-05 0.00010226 0.000230401 0.000259517 0.00010226 3.36245e-05 0.000259517 0.000196672 -1.36275e-05 -0.000170134 3.36245e-05 -0.000120526 -0.000170134 -0.000411876 -0.000120526 -0.000359135 3.36245e-05 -0.000120526 0.000196672 4.57879e-05 -0.000120526 -0.000359135 4.57879e-05 -0.000190766 0.000230401 0.000259517 0.000500007 0.000541183 0.000259517 0.000196672 0.000541183 0.000485199 0.000500007 0.000541183 0.000906437 0.000960014 0.000541183 0.000485199 0.000960014 0.000910882 0.000196672 4.57879e-05 0.000485199 0.00033752 4.57879e-05 -0.000190766 0.00033752 0.000101554 0.000485199 0.00033752 0.000910882 0.000765582 0.00033752 0.000101554 0.000765582 0.000528297 0.000463786 4.25033e-05 5.23324e-05 -0.000276036 4.25033e-05 -0.000498059 -0.000276036 -0.000694217 5.23324e-05 -0.000276036 -0.000191742 -0.000539969 -0.000276036 -0.000694217 -0.000539969 -0.000980039 -0.000498059 -0.00114847 -0.000694217 -0.00119597 -0.00114847 -0.00189849 -0.00119597 -0.00177395 -0.000694217 -0.00119597 -0.000980039 -0.0015064 -0.00119597 -0.00177395 -0.0015064 -0.00211202 -0.000191742 -0.000539969 -0.000356361 -0.000688043 -0.000539969 -0.000980039 -0.000688043 -0.00110442 -0.000356361 -0.000688043 -0.000411876 -0.000737782 -0.000688043 -0.00110442 -0.000737782 -0.00114554 -0.000980039 -0.0015064 -0.00110442 -0.00160111 -0.0015064 -0.00211202 -0.00160111 -0.00217227 -0.00110442 -0.00160111 -0.00114554 -0.00163146 -0.00160111 -0.00217227 -0.00163146 -0.00219057 -0.00189849 -0.00273678 -0.00177395 -0.00241958 -0.00273678 -0.00365059 -0.00241958 -0.00312292 -0.00177395 -0.00241958 -0.00211202 -0.00278831 -0.00241958 -0.00312292 -0.00278831 -0.0035251 -0.00365059 -0.00462533 -0.00312292 -0.00387247 -0.00462533 -0.00564424 -0.00387247 -0.00465506 -0.00312292 -0.00387247 -0.0035251 -0.00431035 -0.00387247 -0.00465506 -0.00431035 -0.00513018 -0.00211202 -0.00278831 -0.00217227 -0.00281038 -0.00278831 -0.0035251 -0.00281038 -0.00350634 -0.00217227 -0.00281038 -0.00219057 -0.00281617 -0.00281038 -0.00350634 -0.00281617 -0.00349991 -0.0035251 -0.00431035 -0.00350634 -0.00424908 -0.00431035 -0.00513018 -0.00424908 -0.00502556 -0.00350634 -0.00424908 -0.00349991 -0.0042314 -0.00424908 -0.00502556 -0.0042314 -0.00499811 -0.000411876 -0.000737782 -0.000359135 -0.000680591 -0.000737782 -0.00114554 -0.000680591 -0.00108275 -0.000359135 -0.000680591 -0.000190766 -0.000510847 -0.000680591 -0.00108275 -0.000510847 -0.000912419 -0.00114554 -0.00163146 -0.00108275 -0.00156247 -0.00163146 -0.00219057 -0.00156247 -0.0021155 -0.00108275 -0.00156247 -0.000912419 -0.00139279 -0.00156247 -0.0021155 -0.00139279 -0.00194835 -0.000190766 -0.000510847 0.000101554 -0.000220184 -0.000510847 -0.000912419 -0.000220184 -0.000625776 0.000101554 -0.000220184 0.000528297 0.000201725 -0.000220184 -0.000625776 0.000201725 -0.000212392 -0.000912419 -0.00139279 -0.000625776 -0.00111302 -0.00139279 -0.00194835 -0.00111302 -0.00167896 -0.000625776 -0.00111302 -0.000212392 -0.000712426 -0.00111302 -0.00167896 -0.000712426 -0.00129617 -0.00219057 -0.00281617 -0.0021155 -0.00273595 -0.00281617 -0.00349991 -0.00273595 -0.0034162 -0.0021155 -0.00273595 -0.00194835 -0.002574 -0.00273595 -0.0034162 -0.002574 -0.00326279 -0.00349991 -0.0042314 -0.0034162 -0.00414653 -0.0042314 -0.00499811 -0.00414653 -0.0049149 -0.0034162 -0.00414653 -0.00326279 -0.00400555 -0.00414653 -0.0049149 -0.00400555 -0.00479063 -0.00194835 -0.002574 -0.00167896 -0.00231924 -0.002574 -0.00326279 -0.00231924 -0.00302764 -0.00167896 -0.00231924 -0.00129617 -0.0019601 -0.00231924 -0.00302764 -0.0019601 -0.0026988 -0.00326279 -0.00400555 -0.00302764 -0.00379555 -0.00400555 -0.00479063 -0.00379555 -0.00461161 -0.00302764 -0.00379555 -0.0026988 -0.00350431 -0.00379555 -0.00461161 -0.00350431 -0.0043656 -0.000542183 4.51733e-05 -6.67404e-05 0.000478565 4.51733e-05 0.000450687 0.000478565 0.000965151 -6.67404e-05 0.000478565 0.000589244 0.00106201 0.000478565 0.000965151 0.00106201 0.00164615 0.000450687 0.000742328 0.000965151 0.00127815 0.000742328 0.000906437 0.00127815 0.00146377 0.000965151 0.00127815 0.00164615 0.00197856 0.00127815 0.00146377 0.00197856 0.0021866 0.000589244 0.00106201 0.0014375 0.00180722 0.00106201 0.00164615 0.00180722 0.0025081 0.0014375 0.00180722 0.00249204 0.00272746 0.00180722 0.0025081 0.00272746 0.00356703 0.00164615 0.00197856 0.0025081 0.00285881 0.00197856 0.0021866 0.00285881 0.00309077 0.0025081 0.00285881 0.00356703 0.00393568 0.00285881 0.00309077 0.00393568 0.00419366 0.000906437 0.000960014 0.00146377 0.00152959 0.000960014 0.000910882 0.00152959 0.00148681 0.00146377 0.00152959 0.0021866 0.00226449 0.00152959 0.00148681 0.00226449 0.0022275 0.000910882 0.000765582 0.00148681 0.0013427 0.000765582 0.000528297 0.0013427 0.00110207 0.00148681 0.0013427 0.0022275 0.00208345 0.0013427 0.00110207 0.00208345 0.00183776 0.0021866 0.00226449 0.00309077 0.00318084 0.00226449 0.0022275 0.00318084 0.00314934 0.00309077 0.00318084 0.00419366 0.00429647 0.00318084 0.00314934 0.00429647 0.00427064 0.0022275 0.00208345 0.00314934 0.00300461 0.00208345 0.00183776 0.00300461 0.00275276 0.00314934 0.00300461 0.00427064 0.00412521 0.00300461 0.00275276 0.00412521 0.00386711 0.00249204 0.00272746 0.00376974 0.00383832 0.00272746 0.00356703 0.00383832 0.00484146 0.00376974 0.00383832 0.00529085 0.00515815 0.00383832 0.00484146 0.00515815 0.00635285 0.00356703 0.00393568 0.00484146 0.00522828 0.00393568 0.00419366 0.00522828 0.00551505 0.00484146 0.00522828 0.00635285 0.00675858 0.00522828 0.00551505 0.00675858 0.00707743 0.00529085 0.00515815 0.00707961 0.0067088 0.00515815 0.00635285 0.0067088 0.00812665 0.00707961 0.0067088 0.00916508 0.00851661 0.0067088 0.00812665 0.00851661 0.0101933 0.00635285 0.00675858 0.00812665 0.00855235 0.00675858 0.00707743 0.00855235 0.00890675 0.00812665 0.00855235 0.0101933 0.0106399 0.00855235 0.00890675 0.0106399 0.011033 0.00419366 0.00429647 0.00551505 0.00563161 0.00429647 0.00427064 0.00563161 0.00561217 0.00551505 0.00563161 0.00707743 0.00720909 0.00563161 0.00561217 0.00720909 0.00719715 0.00427064 0.00412521 0.00561217 0.00546676 0.00412521 0.00386711 0.00546676 0.00520343 0.00561217 0.00546676 0.00719715 0.00705319 0.00546676 0.00520343 0.00705319 0.00678683 0.00707743 0.00720909 0.00890675 0.00905473 0.00720909 0.00719715 0.00905473 0.00905148 0.00890675 0.00905473 0.011033 0.0111978 0.00905473 0.00905148 0.0111978 0.0112037 0.00719715 0.00705319 0.00905148 0.00891076 0.00705319 0.00678683 0.00891076 0.00864443 0.00905148 0.00891076 0.0112037 0.0110677 0.00891076 0.00864443 0.0110677 0.0108046 0.000528297 0.000201725 0.00110207 0.000767677 0.000201725 -0.000212392 0.000767677 0.000340961 0.00110207 0.000767677 0.00183776 0.00149315 0.000767677 0.000340961 0.00149315 0.00105061 -0.000212392 -0.000712426 0.000340961 -0.000177136 -0.000712426 -0.00129617 -0.000177136 -0.000785296 0.000340961 -0.000177136 0.00105061 0.000510238 -0.000177136 -0.000785296 0.000510238 -0.000127748 0.00183776 0.00149315 0.00275276 0.00239646 0.00149315 0.00105061 0.00239646 0.00193613 0.00275276 0.00239646 0.00386711 0.00349897 0.00239646 0.00193613 0.00349897 0.00302059 0.00105061 0.000510238 0.00193613 0.00137083 0.000510238 -0.000127748 0.00137083 0.000699406 0.00193613 0.00137083 0.00302059 0.0024298 0.00137083 0.000699406 0.0024298 0.0017238 -0.00129617 -0.0019601 -0.000785296 -0.00148105 -0.0019601 -0.0026988 -0.00148105 -0.00225995 -0.000785296 -0.00148105 -0.000127748 -0.000862156 -0.00148105 -0.00225995 -0.000862156 -0.00168984 -0.0026988 -0.00350431 -0.00225995 -0.00311483 -0.00350431 -0.0043656 -0.00311483 -0.0040352 -0.00225995 -0.00311483 -0.00168984 -0.00260476 -0.00311483 -0.0040352 -0.00260476 -0.00359729 -0.000127748 -0.000862156 0.000699406 -7.85409e-05 -0.000862156 -0.00168984 -7.85409e-05 -0.000961601 0.000699406 -7.85409e-05 0.0017238 0.00090019 -7.85409e-05 -0.000961601 0.00090019 -4.18964e-05 -0.00168984 -0.00260476 -0.000961601 -0.00194538 -0.00260476 -0.00359729 -0.00194538 -0.00302159 -0.000961601 -0.00194538 -4.18964e-05 -0.0011004 -0.00194538 -0.00302159 -0.0011004 -0.00226916 0.00386711 0.00349897 0.00520343 0.00482491 0.00349897 0.00302059 0.00482491 0.00433029 0.00520343 0.00482491 0.00678683 0.00640107 0.00482491 0.00433029 0.00640107 0.00589441 0.00302059 0.0024298 0.00433029 0.0037161 0.0024298 0.0017238 0.0037161 0.00297755 0.00433029 0.0037161 0.00589441 0.00526192 0.0037161 0.00297755 0.00526192 0.00449668 0.00678683 0.00640107 0.00864443 0.00825615 0.00640107 0.00589441 0.00825615 0.00774395 0.00864443 0.00825615 0.0108046 0.0104194 0.00825615 0.00774395 0.0104194 0.00991009 0.00589441 0.00526192 0.00774395 0.00710154 0.00526192 0.00449668 0.00710154 0.00631969 0.00774395 0.00710154 0.00991009 0.00926906 0.00710154 0.00631969 0.00926906 0.00848497 0.0017238 0.00090019 0.00297755 0.0021098 0.00090019 -4.18964e-05 0.0021098 0.00110909 0.00297755 0.0021098 0.00449668 0.00359093 0.0021098 0.00110909 0.00359093 0.0025374 -4.18964e-05 -0.0011004 0.00110909 -2.56763e-05 -0.0011004 -0.00226916 -2.56763e-05 -0.00129153 0.00110909 -2.56763e-05 0.0025374 0.00133091 -2.56763e-05 -0.00129153 0.00133091 -3.0059e-05 0.00449668 0.00359093 0.00631969 0.00538749 0.00359093 0.0025374 0.00538749 0.00429361 0.00631969 0.00538749 0.00848497 0.00754367 0.00538749 0.00429361 0.00754367 0.00642954 0.0025374 0.00133091 0.00429361 0.00302788 0.00133091 -3.0059e-05 0.00302788 0.00158288 0.00429361 0.00302788 0.00642954 0.00512671 0.00302788 0.00158288 0.00512671 0.0036206 -0.00564424 -0.0066882 -0.00465506 -0.00545574 -0.0066882 -0.00773566 -0.00545574 -0.00625776 -0.00465506 -0.00545574 -0.00513018 -0.00596884 -0.00545574 -0.00625776 -0.00596884 -0.00680866 -0.00773566 -0.00876289 -0.00625776 -0.00704295 -0.00876289 -0.00974435 -0.00704295 -0.00779198 -0.00625776 -0.00704295 -0.00680866 -0.00763061 -0.00704295 -0.00779198 -0.00763061 -0.00841458 -0.00513018 -0.00596884 -0.00502556 -0.00582093 -0.00596884 -0.00680866 -0.00582093 -0.00661843 -0.00502556 -0.00582093 -0.00499811 -0.00578552 -0.00582093 -0.00661843 -0.00578552 -0.00657708 -0.00680866 -0.00763061 -0.00661843 -0.00739988 -0.00763061 -0.00841458 -0.00739988 -0.00814612 -0.00661843 -0.00739988 -0.00657708 -0.00735466 -0.00739988 -0.00814612 -0.00735466 -0.00809888 -0.00974435 -0.0106535 -0.00779198 -0.00848501 -0.0106535 -0.0114637 -0.00848501 -0.00910266 -0.00779198 -0.00848501 -0.00841458 -0.00914005 -0.00848501 -0.00910266 -0.00914005 -0.00978721 -0.0114637 -0.0121498 -0.00910266 -0.00962694 -0.0121498 -0.0126896 -0.00962694 -0.0100427 -0.00910266 -0.00962694 -0.00978721 -0.0103381 -0.00962694 -0.0100427 -0.0103381 -0.0107778 -0.00841458 -0.00914005 -0.00814612 -0.0088376 -0.00914005 -0.00978721 -0.0088376 -0.00945546 -0.00814612 -0.0088376 -0.00809888 -0.00878997 -0.0088376 -0.00945546 -0.00878997 -0.0094087 -0.00978721 -0.0103381 -0.00945546 -0.00998271 -0.0103381 -0.0107778 -0.00998271 -0.0104056 -0.00945546 -0.00998271 -0.0094087 -0.00993762 -0.00998271 -0.0104056 -0.00993762 -0.0103625 -0.00499811 -0.00578552 -0.0049149 -0.00570697 -0.00578552 -0.00657708 -0.00570697 -0.0065062 -0.0049149 -0.00570697 -0.00479063 -0.00560375 -0.00570697 -0.0065062 -0.00560375 -0.00642805 -0.00657708 -0.00735466 -0.0065062 -0.0072941 -0.00735466 -0.00809888 -0.0072941 -0.00805061 -0.0065062 -0.0072941 -0.00642805 -0.00724423 -0.0072941 -0.00805061 -0.00724423 -0.00803105 -0.00479063 -0.00560375 -0.00461161 -0.00546149 -0.00560375 -0.00642805 -0.00546149 -0.00632776 -0.00461161 -0.00546149 -0.0043656 -0.00526821 -0.00546149 -0.00632776 -0.00526821 -0.00619403 -0.00642805 -0.00724423 -0.00632776 -0.00719001 -0.00724423 -0.00803105 -0.00719001 -0.00802526 -0.00632776 -0.00719001 -0.00619403 -0.00712118 -0.00719001 -0.00802526 -0.00712118 -0.00802444 -0.00809888 -0.00878997 -0.00805061 -0.00875508 -0.00878997 -0.0094087 -0.00875508 -0.00938719 -0.00805061 -0.00875508 -0.00803105 -0.00876627 -0.00875508 -0.00938719 -0.00876627 -0.00942762 -0.0094087 -0.00993762 -0.00938719 -0.00992825 -0.00993762 -0.0103625 -0.00992825 -0.0103627 -0.00938719 -0.00992825 -0.00942762 -0.00999438 -0.00992825 -0.0103627 -0.00999438 -0.0104489 -0.00803105 -0.00876627 -0.00802526 -0.00880898 -0.00876627 -0.00942762 -0.00880898 -0.00951617 -0.00802526 -0.00880898 -0.00802444 -0.00887629 -0.00880898 -0.00951617 -0.00887629 -0.0096481 -0.00942762 -0.00999438 -0.00951617 -0.0101232 -0.00999438 -0.0104489 -0.0101232 -0.0106093 -0.00951617 -0.0101232 -0.0096481 -0.0103122 -0.0101232 -0.0106093 -0.0103122 -0.0108441 -0.0126896 -0.0130658 -0.0100427 -0.010339 -0.0130658 -0.0132685 -0.010339 -0.0105114 -0.0100427 -0.010339 -0.0107778 -0.0110963 -0.010339 -0.0105114 -0.0110963 -0.0112901 -0.0132685 -0.0132994 -0.0105114 -0.010561 -0.0132994 -0.013167 -0.010561 -0.0105117 -0.0105114 -0.010561 -0.0112901 -0.0113621 -0.010561 -0.0105117 -0.0113621 -0.0113339 -0.0107778 -0.0110963 -0.0104056 -0.0107147 -0.0110963 -0.0112901 -0.0107147 -0.0109071 -0.0104056 -0.0107147 -0.0103625 -0.0106736 -0.0107147 -0.0109071 -0.0106736 -0.010867 -0.0112901 -0.0113621 -0.0109071 -0.0109848 -0.0113621 -0.0113339 -0.0109848 -0.0109672 -0.0109071 -0.0109848 -0.010867 -0.0109436 -0.0109848 -0.0109672 -0.0109436 -0.0109203 -0.013167 -0.0129339 -0.0105117 -0.0103358 -0.0129339 -0.0126203 -0.0103358 -0.0103613 -0.0105117 -0.0103358 -0.0113339 -0.0111842 -0.0103358 -0.0103613 -0.0111842 -0.0112043 -0.0126203 -0.011768 -0.0103613 -0.0092125 -0.011768 -0.01281 -0.0092125 -0.0116105 -0.0103613 -0.0092125 -0.0112043 -0.0100653 -0.0092125 -0.0116105 -0.0100653 -0.0119364 -0.0113339 -0.0111842 -0.0109672 -0.0108254 -0.0111842 -0.0112043 -0.0108254 -0.0108465 -0.0109672 -0.0108254 -0.0109203 -0.0107657 -0.0108254 -0.0108465 -0.0107657 -0.0107517 -0.0112043 -0.0100653 -0.0108465 -0.00967709 -0.0100653 -0.0119364 -0.00967709 -0.0116135 -0.0108465 -0.00967709 -0.0107517 -0.00955171 -0.00967709 -0.0116135 -0.00955171 -0.0113041 -0.0103625 -0.0106736 -0.0103627 -0.0106796 -0.0106736 -0.010867 -0.0106796 -0.0108737 -0.0103627 -0.0106796 -0.0104489 -0.0107782 -0.0106796 -0.0108737 -0.0107782 -0.0109755 -0.010867 -0.0109436 -0.0108737 -0.0109447 -0.0109436 -0.0109203 -0.0109447 -0.0109075 -0.0108737 -0.0109447 -0.0109755 -0.0110392 -0.0109447 -0.0109075 -0.0110392 -0.0109832 -0.0104489 -0.0107782 -0.0106093 -0.0109591 -0.0107782 -0.0109755 -0.0109591 -0.0111638 -0.0106093 -0.0109591 -0.0108441 -0.0112247 -0.0109591 -0.0111638 -0.0112247 -0.0114429 -0.0109755 -0.0110392 -0.0111638 -0.0112205 -0.0110392 -0.0109832 -0.0112205 -0.0111433 -0.0111638 -0.0112205 -0.0114429 -0.0114948 -0.0112205 -0.0111433 -0.0114948 -0.011395 -0.0109203 -0.0107657 -0.0109075 -0.0107287 -0.0107657 -0.0107517 -0.0107287 -0.0106743 -0.0109075 -0.0107287 -0.0109832 -0.010774 -0.0107287 -0.0106743 -0.010774 -0.0106756 -0.0107517 -0.00955171 -0.0106743 -0.00943198 -0.00955171 -0.0113041 -0.00943198 -0.0110958 -0.0106743 -0.00943198 -0.0106756 -0.00938758 -0.00943198 -0.0110958 -0.00938758 -0.0109746 -0.0109832 -0.010774 -0.0111433 -0.0108995 -0.010774 -0.0106756 -0.0108995 -0.0107556 -0.0111433 -0.0108995 -0.011395 -0.0111127 -0.0108995 -0.0107556 -0.0111127 -0.0109206 -0.0106756 -0.00938758 -0.0107556 -0.00941422 -0.00938758 -0.0109746 -0.00941422 -0.0109477 -0.0107556 -0.00941422 -0.0109206 -0.0095154 -0.00941422 -0.0109477 -0.0095154 -0.0110098 -0.0043656 -0.00526821 -0.0040352 -0.00500654 -0.00526821 -0.00619403 -0.00500654 -0.00601001 -0.0040352 -0.00500654 -0.00359729 -0.00465312 -0.00500654 -0.00601001 -0.00465312 -0.00575284 -0.00619403 -0.00712118 -0.00601001 -0.00702205 -0.00712118 -0.00802444 -0.00702205 -0.00801481 -0.00601001 -0.00702205 -0.00575284 -0.00687117 -0.00702205 -0.00801481 -0.00687117 -0.00797722 -0.00359729 -0.00465312 -0.00302159 -0.00417672 -0.00465312 -0.00575284 -0.00417672 -0.00539121 -0.00302159 -0.00417672 -0.00226916 -0.00353633 -0.00417672 -0.00539121 -0.00353633 -0.00488304 -0.00575284 -0.00687117 -0.00539121 -0.00663834 -0.00687117 -0.00797722 -0.00663834 -0.00788403 -0.00539121 -0.00663834 -0.00488304 -0.00628182 -0.00663834 -0.00788403 -0.00628182 -0.00769568 -0.00802444 -0.00887629 -0.00801481 -0.00895699 -0.00887629 -0.0096481 -0.00895699 -0.0098153 -0.00801481 -0.00895699 -0.00797722 -0.00903525 -0.00895699 -0.0098153 -0.00903525 -0.0100061 -0.0096481 -0.0103122 -0.0098153 -0.0105569 -0.0103122 -0.0108441 -0.0105569 -0.0111519 -0.0098153 -0.0105569 -0.0100061 -0.0108503 -0.0105569 -0.0111519 -0.0108503 -0.011531 -0.00797722 -0.00903525 -0.00788403 -0.00908744 -0.00903525 -0.0100061 -0.00908744 -0.0102024 -0.00788403 -0.00908744 -0.00769568 -0.00907832 -0.00908744 -0.0102024 -0.00907832 -0.0103753 -0.0100061 -0.0108503 -0.0102024 -0.0111807 -0.0108503 -0.011531 -0.0111807 -0.0119764 -0.0102024 -0.0111807 -0.0103753 -0.0115278 -0.0111807 -0.0119764 -0.0115278 -0.0124772 -0.00226916 -0.00353633 -0.00129153 -0.00267954 -0.00353633 -0.00488304 -0.00267954 -0.00417296 -0.00129153 -0.00267954 -3.0059e-05 -0.00154118 -0.00267954 -0.00417296 -0.00154118 -0.00318983 -0.00488304 -0.00628182 -0.00417296 -0.00574482 -0.00628182 -0.00769568 -0.00574482 -0.00735629 -0.00417296 -0.00574482 -0.00318983 -0.00495183 -0.00574482 -0.00735629 -0.00495183 -0.00678862 -3.0059e-05 -0.00154118 0.00158288 -4.36841e-05 -0.00154118 -0.00318983 -4.36841e-05 -0.00184604 0.00158288 -4.36841e-05 0.0036206 0.00190012 -4.36841e-05 -0.00184604 0.00190012 -3.90521e-05 -0.00318983 -0.00495183 -0.00184604 -0.00380615 -0.00495183 -0.00678862 -0.00380615 -0.005