# vtk DataFile Version 3.0
#This file was generated by the deal.II library on 2026/1/5 at 14:19:32
ASCII
DATASET UNSTRUCTURED_GRID

POINTS 4096 double
0 0 0
0.03125 0 0
0 0.03125 0
0.03125 0.03125 0
0.03125 0 0
0.0625 0 0
0.03125 0.03125 0
0.0625 0.03125 0
0 0.03125 0
0.03125 0.03125 0
0 0.0625 0
0.03125 0.0625 0
0.03125 0.03125 0
0.0625 0.03125 0
0.03125 0.0625 0
0.0625 0.0625 0
0.0625 0 0
0.09375 0 0
0.0625 0.03125 0
0.09375 0.03125 0
0.09375 0 0
0.125 0 0
0.09375 0.03125 0
0.125 0.03125 0
0.0625 0.03125 0
0.09375 0.03125 0
0.0625 0.0625 0
0.09375 0.0625 0
0.09375 0.03125 0
0.125 0.03125 0
0.09375 0.0625 0
0.125 0.0625 0
0 0.0625 0
0.03125 0.0625 0
0 0.09375 0
0.03125 0.09375 0
0.03125 0.0625 0
0.0625 0.0625 0
0.03125 0.09375 0
0.0625 0.09375 0
0 0.09375 0
0.03125 0.09375 0
0 0.125 0
0.03125 0.125 0
0.03125 0.09375 0
0.0625 0.09375 0
0.03125 0.125 0
0.0625 0.125 0
0.0625 0.0625 0
0.09375 0.0625 0
0.0625 0.09375 0
0.09375 0.09375 0
0.09375 0.0625 0
0.125 0.0625 0
0.09375 0.09375 0
0.125 0.09375 0
0.0625 0.09375 0
0.09375 0.09375 0
0.0625 0.125 0
0.09375 0.125 0
0.09375 0.09375 0
0.125 0.09375 0
0.09375 0.125 0
0.125 0.125 0
0.125 0 0
0.15625 0 0
0.125 0.03125 0
0.15625 0.03125 0
0.15625 0 0
0.1875 0 0
0.15625 0.03125 0
0.1875 0.03125 0
0.125 0.03125 0
0.15625 0.03125 0
0.125 0.0625 0
0.15625 0.0625 0
0.15625 0.03125 0
0.1875 0.03125 0
0.15625 0.0625 0
0.1875 0.0625 0
0.1875 0 0
0.21875 0 0
0.1875 0.03125 0
0.21875 0.03125 0
0.21875 0 0
0.25 0 0
0.21875 0.03125 0
0.25 0.03125 0
0.1875 0.03125 0
0.21875 0.03125 0
0.1875 0.0625 0
0.21875 0.0625 0
0.21875 0.03125 0
0.25 0.03125 0
0.21875 0.0625 0
0.25 0.0625 0
0.125 0.0625 0
0.15625 0.0625 0
0.125 0.09375 0
0.15625 0.09375 0
0.15625 0.0625 0
0.1875 0.0625 0
0.15625 0.09375 0
0.1875 0.09375 0
0.125 0.09375 0
0.15625 0.09375 0
0.125 0.125 0
0.15625 0.125 0
0.15625 0.09375 0
0.1875 0.09375 0
0.15625 0.125 0
0.1875 0.125 0
0.1875 0.0625 0
0.21875 0.0625 0
0.1875 0.09375 0
0.21875 0.09375 0
0.21875 0.0625 0
0.25 0.0625 0
0.21875 0.09375 0
0.25 0.09375 0
0.1875 0.09375 0
0.21875 0.09375 0
0.1875 0.125 0
0.21875 0.125 0
0.21875 0.09375 0
0.25 0.09375 0
0.21875 0.125 0
0.25 0.125 0
0 0.125 0
0.03125 0.125 0
0 0.15625 0
0.03125 0.15625 0
0.03125 0.125 0
0.0625 0.125 0
0.03125 0.15625 0
0.0625 0.15625 0
0 0.15625 0
0.03125 0.15625 0
0 0.1875 0
0.03125 0.1875 0
0.03125 0.15625 0
0.0625 0.15625 0
0.03125 0.1875 0
0.0625 0.1875 0
0.0625 0.125 0
0.09375 0.125 0
0.0625 0.15625 0
0.09375 0.15625 0
0.09375 0.125 0
0.125 0.125 0
0.09375 0.15625 0
0.125 0.15625 0
0.0625 0.15625 0
0.09375 0.15625 0
0.0625 0.1875 0
0.09375 0.1875 0
0.09375 0.15625 0
0.125 0.15625 0
0.09375 0.1875 0
0.125 0.1875 0
0 0.1875 0
0.03125 0.1875 0
0 0.21875 0
0.03125 0.21875 0
0.03125 0.1875 0
0.0625 0.1875 0
0.03125 0.21875 0
0.0625 0.21875 0
0 0.21875 0
0.03125 0.21875 0
0 0.25 0
0.03125 0.25 0
0.03125 0.21875 0
0.0625 0.21875 0
0.03125 0.25 0
0.0625 0.25 0
0.0625 0.1875 0
0.09375 0.1875 0
0.0625 0.21875 0
0.09375 0.21875 0
0.09375 0.1875 0
0.125 0.1875 0
0.09375 0.21875 0
0.125 0.21875 0
0.0625 0.21875 0
0.09375 0.21875 0
0.0625 0.25 0
0.09375 0.25 0
0.09375 0.21875 0
0.125 0.21875 0
0.09375 0.25 0
0.125 0.25 0
0.125 0.125 0
0.15625 0.125 0
0.125 0.15625 0
0.15625 0.15625 0
0.15625 0.125 0
0.1875 0.125 0
0.15625 0.15625 0
0.1875 0.15625 0
0.125 0.15625 0
0.15625 0.15625 0
0.125 0.1875 0
0.15625 0.1875 0
0.15625 0.15625 0
0.1875 0.15625 0
0.15625 0.1875 0
0.1875 0.1875 0
0.1875 0.125 0
0.21875 0.125 0
0.1875 0.15625 0
0.21875 0.15625 0
0.21875 0.125 0
0.25 0.125 0
0.21875 0.15625 0
0.25 0.15625 0
0.1875 0.15625 0
0.21875 0.15625 0
0.1875 0.1875 0
0.21875 0.1875 0
0.21875 0.15625 0
0.25 0.15625 0
0.21875 0.1875 0
0.25 0.1875 0
0.125 0.1875 0
0.15625 0.1875 0
0.125 0.21875 0
0.15625 0.21875 0
0.15625 0.1875 0
0.1875 0.1875 0
0.15625 0.21875 0
0.1875 0.21875 0
0.125 0.21875 0
0.15625 0.21875 0
0.125 0.25 0
0.15625 0.25 0
0.15625 0.21875 0
0.1875 0.21875 0
0.15625 0.25 0
0.1875 0.25 0
0.1875 0.1875 0
0.21875 0.1875 0
0.1875 0.21875 0
0.21875 0.21875 0
0.21875 0.1875 0
0.25 0.1875 0
0.21875 0.21875 0
0.25 0.21875 0
0.1875 0.21875 0
0.21875 0.21875 0
0.1875 0.25 0
0.21875 0.25 0
0.21875 0.21875 0
0.25 0.21875 0
0.21875 0.25 0
0.25 0.25 0
0.25 0 0
0.28125 0 0
0.25 0.03125 0
0.28125 0.03125 0
0.28125 0 0
0.3125 0 0
0.28125 0.03125 0
0.3125 0.03125 0
0.25 0.03125 0
0.28125 0.03125 0
0.25 0.0625 0
0.28125 0.0625 0
0.28125 0.03125 0
0.3125 0.03125 0
0.28125 0.0625 0
0.3125 0.0625 0
0.3125 0 0
0.34375 0 0
0.3125 0.03125 0
0.34375 0.03125 0
0.34375 0 0
0.375 0 0
0.34375 0.03125 0
0.375 0.03125 0
0.3125 0.03125 0
0.34375 0.03125 0
0.3125 0.0625 0
0.34375 0.0625 0
0.34375 0.03125 0
0.375 0.03125 0
0.34375 0.0625 0
0.375 0.0625 0
0.25 0.0625 0
0.28125 0.0625 0
0.25 0.09375 0
0.28125 0.09375 0
0.28125 0.0625 0
0.3125 0.0625 0
0.28125 0.09375 0
0.3125 0.09375 0
0.25 0.09375 0
0.28125 0.09375 0
0.25 0.125 0
0.28125 0.125 0
0.28125 0.09375 0
0.3125 0.09375 0
0.28125 0.125 0
0.3125 0.125 0
0.3125 0.0625 0
0.34375 0.0625 0
0.3125 0.09375 0
0.34375 0.09375 0
0.34375 0.0625 0
0.375 0.0625 0
0.34375 0.09375 0
0.375 0.09375 0
0.3125 0.09375 0
0.34375 0.09375 0
0.3125 0.125 0
0.34375 0.125 0
0.34375 0.09375 0
0.375 0.09375 0
0.34375 0.125 0
0.375 0.125 0
0.375 0 0
0.40625 0 0
0.375 0.03125 0
0.40625 0.03125 0
0.40625 0 0
0.4375 0 0
0.40625 0.03125 0
0.4375 0.03125 0
0.375 0.03125 0
0.40625 0.03125 0
0.375 0.0625 0
0.40625 0.0625 0
0.40625 0.03125 0
0.4375 0.03125 0
0.40625 0.0625 0
0.4375 0.0625 0
0.4375 0 0
0.46875 0 0
0.4375 0.03125 0
0.46875 0.03125 0
0.46875 0 0
0.5 0 0
0.46875 0.03125 0
0.5 0.03125 0
0.4375 0.03125 0
0.46875 0.03125 0
0.4375 0.0625 0
0.46875 0.0625 0
0.46875 0.03125 0
0.5 0.03125 0
0.46875 0.0625 0
0.5 0.0625 0
0.375 0.0625 0
0.40625 0.0625 0
0.375 0.09375 0
0.40625 0.09375 0
0.40625 0.0625 0
0.4375 0.0625 0
0.40625 0.09375 0
0.4375 0.09375 0
0.375 0.09375 0
0.40625 0.09375 0
0.375 0.125 0
0.40625 0.125 0
0.40625 0.09375 0
0.4375 0.09375 0
0.40625 0.125 0
0.4375 0.125 0
0.4375 0.0625 0
0.46875 0.0625 0
0.4375 0.09375 0
0.46875 0.09375 0
0.46875 0.0625 0
0.5 0.0625 0
0.46875 0.09375 0
0.5 0.09375 0
0.4375 0.09375 0
0.46875 0.09375 0
0.4375 0.125 0
0.46875 0.125 0
0.46875 0.09375 0
0.5 0.09375 0
0.46875 0.125 0
0.5 0.125 0
0.25 0.125 0
0.28125 0.125 0
0.25 0.15625 0
0.28125 0.15625 0
0.28125 0.125 0
0.3125 0.125 0
0.28125 0.15625 0
0.3125 0.15625 0
0.25 0.15625 0
0.28125 0.15625 0
0.25 0.1875 0
0.28125 0.1875 0
0.28125 0.15625 0
0.3125 0.15625 0
0.28125 0.1875 0
0.3125 0.1875 0
0.3125 0.125 0
0.34375 0.125 0
0.3125 0.15625 0
0.34375 0.15625 0
0.34375 0.125 0
0.375 0.125 0
0.34375 0.15625 0
0.375 0.15625 0
0.3125 0.15625 0
0.34375 0.15625 0
0.3125 0.1875 0
0.34375 0.1875 0
0.34375 0.15625 0
0.375 0.15625 0
0.34375 0.1875 0
0.375 0.1875 0
0.25 0.1875 0
0.28125 0.1875 0
0.25 0.21875 0
0.28125 0.21875 0
0.28125 0.1875 0
0.3125 0.1875 0
0.28125 0.21875 0
0.3125 0.21875 0
0.25 0.21875 0
0.28125 0.21875 0
0.25 0.25 0
0.28125 0.25 0
0.28125 0.21875 0
0.3125 0.21875 0
0.28125 0.25 0
0.3125 0.25 0
0.3125 0.1875 0
0.34375 0.1875 0
0.3125 0.21875 0
0.34375 0.21875 0
0.34375 0.1875 0
0.375 0.1875 0
0.34375 0.21875 0
0.375 0.21875 0
0.3125 0.21875 0
0.34375 0.21875 0
0.3125 0.25 0
0.34375 0.25 0
0.34375 0.21875 0
0.375 0.21875 0
0.34375 0.25 0
0.375 0.25 0
0.375 0.125 0
0.40625 0.125 0
0.375 0.15625 0
0.40625 0.15625 0
0.40625 0.125 0
0.4375 0.125 0
0.40625 0.15625 0
0.4375 0.15625 0
0.375 0.15625 0
0.40625 0.15625 0
0.375 0.1875 0
0.40625 0.1875 0
0.40625 0.15625 0
0.4375 0.15625 0
0.40625 0.1875 0
0.4375 0.1875 0
0.4375 0.125 0
0.46875 0.125 0
0.4375 0.15625 0
0.46875 0.15625 0
0.46875 0.125 0
0.5 0.125 0
0.46875 0.15625 0
0.5 0.15625 0
0.4375 0.15625 0
0.46875 0.15625 0
0.4375 0.1875 0
0.46875 0.1875 0
0.46875 0.15625 0
0.5 0.15625 0
0.46875 0.1875 0
0.5 0.1875 0
0.375 0.1875 0
0.40625 0.1875 0
0.375 0.21875 0
0.40625 0.21875 0
0.40625 0.1875 0
0.4375 0.1875 0
0.40625 0.21875 0
0.4375 0.21875 0
0.375 0.21875 0
0.40625 0.21875 0
0.375 0.25 0
0.40625 0.25 0
0.40625 0.21875 0
0.4375 0.21875 0
0.40625 0.25 0
0.4375 0.25 0
0.4375 0.1875 0
0.46875 0.1875 0
0.4375 0.21875 0
0.46875 0.21875 0
0.46875 0.1875 0
0.5 0.1875 0
0.46875 0.21875 0
0.5 0.21875 0
0.4375 0.21875 0
0.46875 0.21875 0
0.4375 0.25 0
0.46875 0.25 0
0.46875 0.21875 0
0.5 0.21875 0
0.46875 0.25 0
0.5 0.25 0
0 0.25 0
0.03125 0.25 0
0 0.28125 0
0.03125 0.28125 0
0.03125 0.25 0
0.0625 0.25 0
0.03125 0.28125 0
0.0625 0.28125 0
0 0.28125 0
0.03125 0.28125 0
0 0.3125 0
0.03125 0.3125 0
0.03125 0.28125 0
0.0625 0.28125 0
0.03125 0.3125 0
0.0625 0.3125 0
0.0625 0.25 0
0.09375 0.25 0
0.0625 0.28125 0
0.09375 0.28125 0
0.09375 0.25 0
0.125 0.25 0
0.09375 0.28125 0
0.125 0.28125 0
0.0625 0.28125 0
0.09375 0.28125 0
0.0625 0.3125 0
0.09375 0.3125 0
0.09375 0.28125 0
0.125 0.28125 0
0.09375 0.3125 0
0.125 0.3125 0
0 0.3125 0
0.03125 0.3125 0
0 0.34375 0
0.03125 0.34375 0
0.03125 0.3125 0
0.0625 0.3125 0
0.03125 0.34375 0
0.0625 0.34375 0
0 0.34375 0
0.03125 0.34375 0
0 0.375 0
0.03125 0.375 0
0.03125 0.34375 0
0.0625 0.34375 0
0.03125 0.375 0
0.0625 0.375 0
0.0625 0.3125 0
0.09375 0.3125 0
0.0625 0.34375 0
0.09375 0.34375 0
0.09375 0.3125 0
0.125 0.3125 0
0.09375 0.34375 0
0.125 0.34375 0
0.0625 0.34375 0
0.09375 0.34375 0
0.0625 0.375 0
0.09375 0.375 0
0.09375 0.34375 0
0.125 0.34375 0
0.09375 0.375 0
0.125 0.375 0
0.125 0.25 0
0.15625 0.25 0
0.125 0.28125 0
0.15625 0.28125 0
0.15625 0.25 0
0.1875 0.25 0
0.15625 0.28125 0
0.1875 0.28125 0
0.125 0.28125 0
0.15625 0.28125 0
0.125 0.3125 0
0.15625 0.3125 0
0.15625 0.28125 0
0.1875 0.28125 0
0.15625 0.3125 0
0.1875 0.3125 0
0.1875 0.25 0
0.21875 0.25 0
0.1875 0.28125 0
0.21875 0.28125 0
0.21875 0.25 0
0.25 0.25 0
0.21875 0.28125 0
0.25 0.28125 0
0.1875 0.28125 0
0.21875 0.28125 0
0.1875 0.3125 0
0.21875 0.3125 0
0.21875 0.28125 0
0.25 0.28125 0
0.21875 0.3125 0
0.25 0.3125 0
0.125 0.3125 0
0.15625 0.3125 0
0.125 0.34375 0
0.15625 0.34375 0
0.15625 0.3125 0
0.1875 0.3125 0
0.15625 0.34375 0
0.1875 0.34375 0
0.125 0.34375 0
[...]
POINT_DATA 4096
SCALARS p double 1
LOOKUP_TABLE default
-3.87457e-05 5.77768e-05 -0.000166532 -6.16674e-05 5.77768e-05 0.000289193 -6.16674e-05 5.26187e-05 -0.000166532 -6.16674e-05 -0.000408548 -0.000180933 -6.16674e-05 5.26187e-05 -0.000180933 -6.16363e-05 0.000289193 0.000454281 5.26187e-05 0.000127326 0.000454281 0.000471585 0.000127326 0.000105656 5.26187e-05 0.000127326 -6.16363e-05 2.05076e-06 0.000127326 0.000105656 2.05076e-06 -4.16749e-05 -0.000408548 -0.000180933 -0.000587492 -0.000261124 -0.000180933 -6.16363e-05 -0.000261124 -0.000121658 -0.000587492 -0.000261124 -0.000622944 -0.000241967 -0.000261124 -0.000121658 -0.000241967 -6.8363e-05 -6.16363e-05 2.05076e-06 -0.000121658 -5.32563e-05 2.05076e-06 -4.16749e-05 -5.32563e-05 -0.000101596 -0.000121658 -5.32563e-05 -6.8363e-05 1.44796e-05 -5.32563e-05 -0.000101596 1.44796e-05 -3.00264e-05 0.000471585 0.00031881 0.000105656 -3.19178e-05 0.00031881 -9.20858e-07 -3.19178e-05 -0.000290699 0.000105656 -3.19178e-05 -4.16749e-05 -0.000202757 -3.19178e-05 -0.000290699 -0.000202757 -0.000487949 -9.20858e-07 -0.000477014 -0.000290699 -0.000667854 -0.000477014 -0.00109744 -0.000667854 -0.00115725 -0.000290699 -0.000667854 -0.000487949 -0.000896383 -0.000667854 -0.00115725 -0.000896383 -0.00142353 -4.16749e-05 -0.000202757 -0.000101596 -0.000264216 -0.000202757 -0.000487949 -0.000264216 -0.000545181 -0.000101596 -0.000264216 -3.00264e-05 -0.000193602 -0.000264216 -0.000545181 -0.000193602 -0.000477063 -0.000487949 -0.000896383 -0.000545181 -0.000943455 -0.000896383 -0.00142353 -0.000943455 -0.00145546 -0.000545181 -0.000943455 -0.000477063 -0.000878169 -0.000943455 -0.00145546 -0.000878169 -0.00139319 -0.000622944 -0.000241967 -0.000488447 -9.98912e-05 -0.000241967 -6.8363e-05 -9.98912e-05 0.000114182 -0.000488447 -9.98912e-05 -0.000178987 0.000177329 -9.98912e-05 0.000114182 0.000177329 0.000440877 -6.8363e-05 1.44796e-05 0.000114182 0.000209626 1.44796e-05 -3.00264e-05 0.000209626 0.000171973 0.000114182 0.000209626 0.000440877 0.000544754 0.000209626 0.000171973 0.000544754 0.000513928 -0.000178987 0.000177329 0.000306423 0.000596458 0.000177329 0.000440877 0.000596458 0.000921638 0.000306423 0.000596458 0.000970702 0.00116378 0.000596458 0.000921638 0.00116378 0.0015657 0.000440877 0.000544754 0.000921638 0.00102959 0.000544754 0.000513928 0.00102959 0.00100447 0.000921638 0.00102959 0.0015657 0.00167401 0.00102959 0.00100447 0.00167401 0.00165326 -3.00264e-05 -0.000193602 0.000171973 8.89723e-06 -0.000193602 -0.000477063 8.89723e-06 -0.000277567 0.000171973 8.89723e-06 0.000513928 0.000349884 8.89723e-06 -0.000277567 0.000349884 5.73008e-05 -0.000477063 -0.000878169 -0.000277567 -0.000684118 -0.000878169 -0.00139319 -0.000684118 -0.00120656 -0.000277567 -0.000684118 5.73008e-05 -0.000359863 -0.000684118 -0.00120656 -0.000359863 -0.000896867 0.000513928 0.000349884 0.00100447 0.000836892 0.000349884 5.73008e-05 0.000836892 0.000534348 0.00100447 0.000836892 0.00165326 0.00147901 0.000836892 0.000534348 0.00147901 0.00116204 5.73008e-05 -0.000359863 0.000534348 0.000101078 -0.000359863 -0.000896867 0.000101078 -0.000457614 0.000534348 0.000101078 0.00116204 0.000706612 0.000101078 -0.000457614 0.000706612 0.000118602 -0.00109744 -0.00185047 -0.00115725 -0.00175124 -0.00185047 -0.00272451 -0.00175124 -0.00244132 -0.00115725 -0.00175124 -0.00142353 -0.00206252 -0.00175124 -0.00244132 -0.00206252 -0.00280498 -0.00272451 -0.00370754 -0.00244132 -0.00321814 -0.00370754 -0.00478667 -0.00321814 -0.00407148 -0.00244132 -0.00321814 -0.00280498 -0.00364125 -0.00321814 -0.00407148 -0.00364125 -0.00456046 -0.00142353 -0.00206252 -0.00145546 -0.00207539 -0.00206252 -0.00280498 -0.00207539 -0.00279579 -0.00145546 -0.00207539 -0.00139319 -0.00201658 -0.00207539 -0.00279579 -0.00201658 -0.00274118 -0.00280498 -0.00364125 -0.00279579 -0.00360768 -0.00364125 -0.00456046 -0.00360768 -0.00450078 -0.00279579 -0.00360768 -0.00274118 -0.00355828 -0.00360768 -0.00450078 -0.00355828 -0.0044578 -0.00478667 -0.00594785 -0.00407148 -0.00499015 -0.00594785 -0.00717582 -0.00499015 -0.00596198 -0.00407148 -0.00499015 -0.00456046 -0.00555057 -0.00499015 -0.00596198 -0.00555057 -0.00659843 -0.00717582 -0.00845415 -0.00596198 -0.00697382 -0.00845415 -0.0097653 -0.00697382 -0.00801164 -0.00596198 -0.00697382 -0.00659843 -0.0076898 -0.00697382 -0.00801164 -0.0076898 -0.0088095 -0.00456046 -0.00555057 -0.00450078 -0.00546354 -0.00555057 -0.00659843 -0.00546354 -0.00648324 -0.00450078 -0.00546354 -0.0044578 -0.0054283 -0.00546354 -0.00648324 -0.0054283 -0.00645712 -0.00659843 -0.0076898 -0.00648324 -0.00754607 -0.0076898 -0.0088095 -0.00754607 -0.00863723 -0.00648324 -0.00754607 -0.00645712 -0.00753043 -0.00754607 -0.00863723 -0.00753043 -0.00863333 -0.00139319 -0.00201658 -0.00120656 -0.00183921 -0.00201658 -0.00274118 -0.00183921 -0.00257498 -0.00120656 -0.00183921 -0.000896867 -0.00154777 -0.00183921 -0.00257498 -0.00154777 -0.00230535 -0.00274118 -0.00355828 -0.00257498 -0.00340527 -0.00355828 -0.0044578 -0.00340527 -0.0043201 -0.00257498 -0.00340527 -0.00230535 -0.00316094 -0.00340527 -0.0043201 -0.00316094 -0.00410448 -0.000896867 -0.00154777 -0.000457614 -0.00113549 -0.00154777 -0.00230535 -0.00113549 -0.00192513 -0.000457614 -0.00113549 0.000118602 -0.000595415 -0.00113549 -0.00192513 -0.000595415 -0.00142773 -0.00230535 -0.00316094 -0.00192513 -0.00281765 -0.00316094 -0.00410448 -0.00281765 -0.00380281 -0.00192513 -0.00281765 -0.00142773 -0.00236921 -0.00281765 -0.00380281 -0.00236921 -0.00340931 -0.0044578 -0.0054283 -0.0043201 -0.00530808 -0.0054283 -0.00645712 -0.00530808 -0.0063565 -0.0043201 -0.00530808 -0.00410448 -0.00512449 -0.00530808 -0.0063565 -0.00512449 -0.00620813 -0.00645712 -0.00753043 -0.0063565 -0.00745146 -0.00753043 -0.00863333 -0.00745146 -0.00857786 -0.0063565 -0.00745146 -0.00620813 -0.00734122 -0.00745146 -0.00857786 -0.00734122 -0.00850835 -0.00410448 -0.00512449 -0.00380281 -0.00486889 -0.00512449 -0.00620813 -0.00486889 -0.00600279 -0.00380281 -0.00486889 -0.00340931 -0.00453601 -0.00486889 -0.00600279 -0.00453601 -0.00573584 -0.00620813 -0.00734122 -0.00600279 -0.00718999 -0.00734122 -0.00850835 -0.00718999 -0.00841462 -0.00600279 -0.00718999 -0.00573584 -0.0069938 -0.00718999 -0.00841462 -0.0069938 -0.00829343 0.000970702 0.00116378 0.00182067 0.00188706 0.00116378 0.0015657 0.00188706 0.00238328 0.00182067 0.00188706 0.00286721 0.00277652 0.00188706 0.00238328 0.00277652 0.00338679 0.0015657 0.00167401 0.00238328 0.00248898 0.00167401 0.00165326 0.00248898 0.00247147 0.00238328 0.00248898 0.00338679 0.00348741 0.00248898 0.00247147 0.00348741 0.00347223 0.00286721 0.00277652 0.00412504 0.00384522 0.00277652 0.00338679 0.00384522 0.00459142 0.00412504 0.00384522 0.00561264 0.00510922 0.00384522 0.00459142 0.00510922 0.00601565 0.00338679 0.00348741 0.00459142 0.00468475 0.00348741 0.00347223 0.00468475 0.00467124 0.00459142 0.00468475 0.00601565 0.0060997 0.00468475 0.00467124 0.0060997 0.00608735 0.00165326 0.00147901 0.00247147 0.00228717 0.00147901 0.00116204 0.00228717 0.00195092 0.00247147 0.00228717 0.00347223 0.00327441 0.00228717 0.00195092 0.00327441 0.00291377 0.00116204 0.000706612 0.00195092 0.00146692 0.000706612 0.000118602 0.00146692 0.000841596 0.00195092 0.00146692 0.00291377 0.00239439 0.00146692 0.000841596 0.00239439 0.0017234 0.00347223 0.00327441 0.00467124 0.00445632 0.00327441 0.00291377 0.00445632 0.00406591 0.00467124 0.00445632 0.00608735 0.00585154 0.00445632 0.00406591 0.00585154 0.00542557 0.00291377 0.00239439 0.00406591 0.003504 0.00239439 0.0017234 0.003504 0.00277858 0.00406591 0.003504 0.00542557 0.00481348 0.003504 0.00277858 0.00481348 0.0040243 0.00561264 0.00510922 0.00735244 0.00658799 0.00510922 0.00601565 0.00658799 0.00768178 0.00735244 0.00658799 0.00937105 0.00830493 0.00658799 0.00768178 0.00830493 0.00961656 0.00601565 0.0060997 0.00768178 0.00775456 0.0060997 0.00608735 0.00775456 0.00774292 0.00768178 0.00775456 0.00961656 0.00967603 0.00775456 0.00774292 0.00967603 0.00966456 0.00937105 0.00830493 0.0117 0.010288 0.00830493 0.00961656 0.010288 0.0118521 0.0117 0.010288 0.0143769 0.0125707 0.010288 0.0118521 0.0125707 0.0144272 0.00961656 0.00967603 0.0118521 0.0118962 0.00967603 0.00966456 0.0118962 0.011884 0.0118521 0.0118962 0.0144272 0.0144536 0.0118962 0.011884 0.0144536 0.0144392 0.00608735 0.00585154 0.00774292 0.00748211 0.00585154 0.00542557 0.00748211 0.00701427 0.00774292 0.00748211 0.00966456 0.00937408 0.00748211 0.00701427 0.00937408 0.00885721 0.00542557 0.00481348 0.00701427 0.00634366 0.00481348 0.0040243 0.00634366 0.00548065 0.00701427 0.00634366 0.00885721 0.00811878 0.00634366 0.00548065 0.00811878 0.00717092 0.00966456 0.00937408 0.011884 0.0115581 0.00937408 0.00885721 0.0115581 0.0109839 0.011884 0.0115581 0.0144392 0.0140708 0.0115581 0.0109839 0.0140708 0.0134287 0.00885721 0.00811878 0.0109839 0.0101669 0.00811878 0.00717092 0.0101669 0.00912182 0.0109839 0.0101669 0.0134287 0.0125206 0.0101669 0.00912182 0.0125206 0.0113638 0.000118602 -0.000595415 0.000841596 8.19245e-05 -0.000595415 -0.00142773 8.19245e-05 -0.000804021 0.000841596 8.19245e-05 0.0017234 0.000908193 8.19245e-05 -0.000804021 0.000908193 -4.27003e-05 -0.00142773 -0.00236921 -0.000804021 -0.00180678 -0.00236921 -0.00340931 -0.00180678 -0.00291549 -0.000804021 -0.00180678 -4.27003e-05 -0.00111946 -0.00180678 -0.00291549 -0.00111946 -0.00231085 0.0017234 0.000908193 0.00277858 0.00189754 0.000908193 -4.27003e-05 0.00189754 0.000869907 0.00277858 0.00189754 0.0040243 0.00306656 0.00189754 0.000869907 0.00306656 0.00194991 -4.27003e-05 -0.00111946 0.000869907 -0.000294053 -0.00111946 -0.00231085 -0.000294053 -0.00158262 0.000869907 -0.000294053 0.00194991 0.000685105 -0.000294053 -0.00158262 0.000685105 -0.000715634 -0.00340931 -0.00453601 -0.00291549 -0.00411773 -0.00453601 -0.00573584 -0.00411773 -0.00539958 -0.00291549 -0.00411773 -0.00231085 -0.003604 -0.00411773 -0.00539958 -0.003604 -0.00498448 -0.00573584 -0.0069938 -0.00539958 -0.00674549 -0.0069938 -0.00829343 -0.00674549 -0.00813833 -0.00539958 -0.00674549 -0.00498448 -0.00643618 -0.00674549 -0.00813833 -0.00643618 -0.00794127 -0.00231085 -0.003604 -0.00158262 -0.0029825 -0.003604 -0.00498448 -0.0029825 -0.00447879 -0.00158262 -0.0029825 -0.000715634 -0.00223859 -0.0029825 -0.00447879 -0.00223859 -0.00386837 -0.00498448 -0.00643618 -0.00447879 -0.00605478 -0.00643618 -0.00794127 -0.00605478 -0.00769197 -0.00447879 -0.00605478 -0.00386837 -0.00558779 -0.00605478 -0.00769197 -0.00558779 -0.00737772 0.0040243 0.00306656 0.00548065 0.00443466 0.00306656 0.00194991 0.00443466 0.00321605 0.00548065 0.00443466 0.00717092 0.00602417 0.00443466 0.00321605 0.00602417 0.0046898 0.00194991 0.000685105 0.00321605 0.00183617 0.000685105 -0.000715634 0.00183617 0.000307758 0.00321605 0.00183617 0.0046898 0.0031799 0.00183617 0.000307758 0.0031799 0.00150778 0.00717092 0.00602417 0.00912182 0.00786053 0.00602417 0.0046898 0.00786053 0.00639552 0.00912182 0.00786053 0.0113638 0.00997244 0.00786053 0.00639552 0.00997244 0.00836042 0.0046898 0.0031799 0.00639552 0.0047398 0.0031799 0.00150778 0.0047398 0.00290729 0.00639552 0.0047398 0.00836042 0.00654192 0.0047398 0.00290729 0.00654192 0.00453162 -0.000715634 -0.00223859 0.000307758 -0.00135505 -0.00223859 -0.00386837 -0.00135505 -0.00313647 0.000307758 -0.00135505 0.00150778 -0.000312033 -0.00135505 -0.00313647 -0.000312033 -0.00226355 -0.00386837 -0.00558779 -0.00313647 -0.00501897 -0.00558779 -0.00737772 -0.00501897 -0.00698296 -0.00313647 -0.00501897 -0.00226355 -0.00432906 -0.00501897 -0.00698296 -0.00432906 -0.00648884 0.00150778 -0.000312033 0.00290729 0.000912908 -0.000312033 -0.00226355 0.000912908 -0.0012273 0.00290729 0.000912908 0.00453162 0.00234477 0.000912908 -0.0012273 0.00234477 -2.64744e-06 -0.00226355 -0.00432906 -0.0012273 -0.00349575 -0.00432906 -0.00648884 -0.00349575 -0.00587299 -0.0012273 -0.00349575 -2.64744e-06 -0.00249356 -0.00349575 -0.00587299 -0.00249356 -0.00510932 -0.0097653 -0.0110907 -0.00801164 -0.00906063 -0.0110907 -0.012411 -0.00906063 -0.0101053 -0.00801164 -0.00906063 -0.0088095 -0.00994145 -0.00906063 -0.0101053 -0.00994145 -0.0110689 -0.012411 -0.0137062 -0.0101053 -0.0111298 -0.0137062 -0.0149561 -0.0111298 -0.0121179 -0.0101053 -0.0111298 -0.0110689 -0.0121745 -0.0111298 -0.0121179 -0.0121745 -0.0132407 -0.0088095 -0.00994145 -0.00863723 -0.00974103 -0.00994145 -0.0110689 -0.00974103 -0.010841 -0.00863723 -0.00974103 -0.00863333 -0.00975001 -0.00974103 -0.010841 -0.00975001 -0.0108638 -0.0110689 -0.0121745 -0.010841 -0.0119203 -0.0121745 -0.0132407 -0.0119203 -0.0129615 -0.010841 -0.0119203 -0.0108638 -0.0119575 -0.0119203 -0.0129615 -0.0119575 -0.0130136 -0.0149561 -0.0161402 -0.0121179 -0.0130534 -0.0161402 -0.0172385 -0.0130534 -0.0139203 -0.0121179 -0.0130534 -0.0132407 -0.01425 -0.0130534 -0.0139203 -0.01425 -0.015185 -0.0172385 -0.0182313 -0.0139203 -0.0147031 -0.0182313 -0.0190995 -0.0147031 -0.0153871 -0.0139203 -0.0147031 -0.015185 -0.0160292 -0.0147031 -0.0153871 -0.0160292 -0.0167668 -0.0132407 -0.01425 -0.0129615 -0.0139475 -0.01425 -0.015185 -0.0139475 -0.0148612 -0.0129615 -0.0139475 -0.0130136 -0.0140143 -0.0139475 -0.0148612 -0.0140143 -0.0149424 -0.015185 -0.0160292 -0.0148612 -0.0156864 -0.0160292 -0.0167668 -0.0156864 -0.016408 -0.0148612 -0.0156864 -0.0149424 -0.0157813 -0.0156864 -0.016408 -0.0157813 -0.0165155 -0.00863333 -0.00975001 -0.00857786 -0.00971963 -0.00975001 -0.0108638 -0.00971963 -0.0108598 -0.00857786 -0.00971963 -0.00850835 -0.00969299 -0.00971963 -0.0108598 -0.00969299 -0.0108776 -0.0108638 -0.0119575 -0.0108598 -0.0119807 -0.0119575 -0.0130136 -0.0119807 -0.0130642 -0.0108598 -0.0119807 -0.0108776 -0.0120439 -0.0119807 -0.0130642 -0.0120439 -0.0131729 -0.00850835 -0.00969299 -0.00841462 -0.00965952 -0.00969299 -0.0108776 -0.00965952 -0.0109064 -0.00841462 -0.00965952 -0.00829343 -0.00961687 -0.00965952 -0.0109064 -0.00961687 -0.0109449 -0.0108776 -0.0120439 -0.0109064 -0.0121361 -0.0120439 -0.0131729 -0.0121361 -0.0133286 -0.0109064 -0.0121361 -0.0109449 -0.0122572 -0.0121361 -0.0133286 -0.0122572 -0.0135323 -0.0130136 -0.0140143 -0.0130642 -0.0140922 -0.0140143 -0.0149424 -0.0140922 -0.0150466 -0.0130642 -0.0140922 -0.0131729 -0.0142456 -0.0140922 -0.0150466 -0.0142456 -0.0152429 -0.0149424 -0.0157813 -0.0150466 -0.0159101 -0.0157813 -0.0165155 -0.0159101 -0.0166665 -0.0150466 -0.0159101 -0.0152429 -0.0161462 -0.0159101 -0.0166665 -0.0161462 -0.0169383 -0.0131729 -0.0142456 -0.0133286 -0.0144635 -0.0142456 -0.0152429 -0.0144635 -0.0155203 -0.0133286 -0.0144635 -0.0135323 -0.0147484 -0.0144635 -0.0155203 -0.0147484 -0.015883 -0.0152429 -0.0161462 -0.0155203 -0.0164791 -0.0161462 -0.0169383 -0.0164791 -0.0173208 -0.0155203 -0.0164791 -0.015883 -0.0169143 -0.0164791 -0.0173208 -0.0169143 -0.0178211 -0.0190995 -0.0198248 -0.0153871 -0.0159582 -0.0198248 -0.0203888 -0.0159582 -0.0164049 -0.0153871 -0.0159582 -0.0167668 -0.0173836 -0.0159582 -0.0164049 -0.0173836 -0.0178682 -0.0203888 -0.0207771 -0.0164049 -0.0167143 -0.0207771 -0.020967 -0.0167143 -0.0169 -0.0164049 -0.0167143 -0.0178682 -0.0182098 -0.0167143 -0.0169 -0.0182098 -0.01842 -0.0167668 -0.0173836 -0.016408 -0.0170123 -0.0173836 -0.0178682 -0.0170123 -0.0174888 -0.016408 -0.0170123 -0.0165155 -0.017131 -0.0170123 -0.0174888 -0.017131 -0.0176171 -0.0178682 -0.0182098 -0.0174888 -0.0178272 -0.0182098 -0.01842 -0.0178272 -0.0180399 -0.0174888 -0.0178272 -0.0176171 -0.017963 -0.0178272 -0.0180399 -0.017963 -0.0181793 -0.020967 -0.0210046 -0.0169 -0.0168747 -0.0210046 -0.0208431 -0.0168747 -0.0171447 -0.0169 -0.0168747 -0.01842 -0.0184256 -0.0168747 -0.0171447 -0.0184256 -0.0186859 -0.0208431 -0.019613 -0.0171447 -0.0153484 -0.019613 -0.0213723 -0.0153484 -0.0193791 -0.0171447 -0.0153484 -0.0186859 -0.0169056 -0.0153484 -0.0193791 -0.0169056 -0.0201199 -0.01842 -0.0184256 -0.0180399 -0.0180468 -0.0184256 -0.0186859 -0.0180468 -0.0183174 -0.0180399 -0.0180468 -0.0181793 -0.0181841 -0.0180468 -0.0183174 -0.0181841 -0.0184366 -0.0186859 -0.0169056 -0.0183174 -0.0164923 -0.0169056 -0.0201199 -0.0164923 -0.0199436 -0.0183174 -0.0164923 -0.0184366 -0.0165817 -0.0164923 -0.0199436 -0.0165817 -0.0198803 -0.0165155 -0.017131 -0.0166665 -0.0173012 -0.017131 -0.0176171 -0.0173012 -0.0178025 -0.0166665 -0.0173012 -0.0169383 -0.0176034 -0.0173012 -0.0178025 -0.0176034 -0.0181286 -0.0176171 -0.017963 -0.0178025 -0.0181586 -0.017963 -0.0181793 -0.0181586 -0.0183788 -0.0178025 -0.0181586 -0.0181286 -0.0185006 -0.0181586 -0.0183788 -0.0185006 -0.0187278 -0.0169383 -0.0176034 -0.0173208 -0.018028 -0.0176034 -0.0181286 -0.018028 -0.0185864 -0.0173208 -0.018028 -0.0178211 -0.0185839 -0.018028 -0.0185864 -0.0185839 -0.0191862 -0.0181286 -0.0185006 -0.0185864 -0.0189811 -0.0185006 -0.0187278 -0.0189811 -0.0192197 -0.0185864 -0.0189811 -0.0191862 -0.0196117 -0.0189811 -0.0192197 -0.0196117 -0.0198672 -0.0181793 -0.0181841 -0.0183788 -0.018378 -0.0181841 -0.0184366 -0.018378 -0.0186176 -0.0183788 -0.018378 -0.0187278 -0.0187225 -0.018378 -0.0186176 -0.0187225 -0.0189529 -0.0184366 -0.0165817 -0.0186176 -0.016717 -0.0165817 -0.0198803 -0.016717 -0.0200274 -0.0186176 -0.016717 -0.0189529 -0.0170009 -0.016717 -0.0200274 -0.0170009 -0.0203384 -0.0187278 -0.0187225 -0.0192197 -0.0192119 -0.0187225 -0.0189529 -0.0192119 -0.0194378 -0.0192197 -0.0192119 -0.0198672 -0.0198592 -0.0192119 -0.0194378 -0.0198592 -0.0200843 -0.0189529 -0.0170009 -0.0194378 -0.0174214 -0.0170009 -0.0203384 -0.0174214 -0.0208223 -0.0194378 -0.0174214 -0.0200843 -0.0179878 -0.0174214 -0.0208223 -0.0179878 -0.0214799 -0.00829343 -0.00961687 -0.00813833 -0.00955942 -0.00961687 -0.0109449 -0.00955942 -0.0109885 -0.00813833 -0.00955942 -0.00794127 -0.00948013 -0.00955942 -0.0109885 -0.00948013 -0.0110313 -0.0109449 -0.0122572 -0.0109885 -0.0124037 -0.0122572 -0.0135323 -0.0124037 -0.0137823 -0.0109885 -0.0124037 -0.0110313 -0.0125716 -0.0124037 -0.0137823 -0.0125716 -0.0140761 -0.00794127 -0.00948013 -0.00769197 -0.00936981 -0.00948013 -0.0110313 -0.00936981 -0.0110657 -0.00769197 -0.00936981 -0.00737772 -0.00921679 -0.00936981 -0.0110657 -0.00921679 -0.0110812 -0.0110313 -0.0125716 -0.0110657 -0.0127547 -0.0125716 -0.0140761 -0.0127547 -0.0144099 -0.0110657 -0.0127547 -0.0110812 -0.0129446 -0.0127547 -0.0144099 -0.0129446 -0.0147776 -0.0135323 -0.0147484 -0.0137823 -0.0151002 -0.0147484 -0.015883 -0.0151002 -0.0163329 -0.0137823 -0.0151002 -0.0140761 -0.0155187 -0.0151002 -0.0163329 -0.0155187 -0.0168719 -0.015883 -0.0169143 -0.0163329 -0.0174558 -0.0169143 -0.0178211 -0.0174558 -0.0184452 -0.0163329 -0.0174558 -0.0168719 -0.0181081 -0.0174558 -0.0184452 -0.0181081 -0.0192001 -0.0140761 -0.0155187 -0.0144099 -0.0160024 -0.0155187 -0.0168719 -0.0160024 -0.0175016 -0.0144099 -0.0160024 -0.0147776 -0.0165484 -0.0160024 -0.0175016 -0.0165484 -0.0182225 -0.0168719 -0.0181081 -0.0175016 -0.0188759 -0.0181081 -0.0192001 -0.0188759 -0.020094 -0.0175016 -0.0188759 -0.0182225 -0.0197639 -0.0188759 -0.020094 -0.0197639 -0.0211356 -0.00737772 -0.00921679 -0.00698296 -0.00900644 -0.00921679 -0.0110812 -0.00900644 -0.0110647 -0.00698296 -0.00900644 -0.00648884 -0.0087206 -0.00900644 -0.0110647 -0.0087206 -0.0109991 -0.0110812 -0.0129446 -0.0110647 -0.0131298 -0.0129446 -0.0147776 -0.0131298 -0.0151704 -0.0110647 -0.0131298 -0.0109991 -0.0132952 -0.0131298 -0.0151704 -0.0132952 -0.0155755 -0.00648884 -0.0087206 -0.00587299 -0.00833702 -0.0087206 -0.0109991 -0.00833702 -0.0108626 -0.00587299 -0.00833702 -0.00510932 -0.00782896 -0.00833702 -0.0108626 -0.00782896 -0.0106282 -0.0109991 -0.0132952 -0.0108626 -0.0134202 -0.0132952 -0.0155755 -0.0134202 -0.0159748 -0.0108626 -0.0134202 -0.0106282 -0.0134781 -0.0134202 -0.0159748 -0.0134781 -0.0163432 -0.0147776 -0.0165484 -0.0151704 -0.0171512 -0.0165484 -0.0182225 -0.0171512 -0.0190335 -0.0151704 -0.0171512 -0.0155755 -0.0178016 -0.0171512 -0.0190335 -0.0178016 -0.0199299 -0.0182225 -0.0197639 -0.0190335 -0.0207755 -0.0197639 -0