# vtk DataFile Version 3.0
#This file was generated by the deal.II library on 2026/1/5 at 14:19:37
ASCII
DATASET UNSTRUCTURED_GRID

POINTS 4096 double
0 0 0
0.03125 0 0
0 0.03125 0
0.03125 0.03125 0
0.03125 0 0
0.0625 0 0
0.03125 0.03125 0
0.0625 0.03125 0
0 0.03125 0
0.03125 0.03125 0
0 0.0625 0
0.03125 0.0625 0
0.03125 0.03125 0
0.0625 0.03125 0
0.03125 0.0625 0
0.0625 0.0625 0
0.0625 0 0
0.09375 0 0
0.0625 0.03125 0
0.09375 0.03125 0
0.09375 0 0
0.125 0 0
0.09375 0.03125 0
0.125 0.03125 0
0.0625 0.03125 0
0.09375 0.03125 0
0.0625 0.0625 0
0.09375 0.0625 0
0.09375 0.03125 0
0.125 0.03125 0
0.09375 0.0625 0
0.125 0.0625 0
0 0.0625 0
0.03125 0.0625 0
0 0.09375 0
0.03125 0.09375 0
0.03125 0.0625 0
0.0625 0.0625 0
0.03125 0.09375 0
0.0625 0.09375 0
0 0.09375 0
0.03125 0.09375 0
0 0.125 0
0.03125 0.125 0
0.03125 0.09375 0
0.0625 0.09375 0
0.03125 0.125 0
0.0625 0.125 0
0.0625 0.0625 0
0.09375 0.0625 0
0.0625 0.09375 0
0.09375 0.09375 0
0.09375 0.0625 0
0.125 0.0625 0
0.09375 0.09375 0
0.125 0.09375 0
0.0625 0.09375 0
0.09375 0.09375 0
0.0625 0.125 0
0.09375 0.125 0
0.09375 0.09375 0
0.125 0.09375 0
0.09375 0.125 0
0.125 0.125 0
0.125 0 0
0.15625 0 0
0.125 0.03125 0
0.15625 0.03125 0
0.15625 0 0
0.1875 0 0
0.15625 0.03125 0
0.1875 0.03125 0
0.125 0.03125 0
0.15625 0.03125 0
0.125 0.0625 0
0.15625 0.0625 0
0.15625 0.03125 0
0.1875 0.03125 0
0.15625 0.0625 0
0.1875 0.0625 0
0.1875 0 0
0.21875 0 0
0.1875 0.03125 0
0.21875 0.03125 0
0.21875 0 0
0.25 0 0
0.21875 0.03125 0
0.25 0.03125 0
0.1875 0.03125 0
0.21875 0.03125 0
0.1875 0.0625 0
0.21875 0.0625 0
0.21875 0.03125 0
0.25 0.03125 0
0.21875 0.0625 0
0.25 0.0625 0
0.125 0.0625 0
0.15625 0.0625 0
0.125 0.09375 0
0.15625 0.09375 0
0.15625 0.0625 0
0.1875 0.0625 0
0.15625 0.09375 0
0.1875 0.09375 0
0.125 0.09375 0
0.15625 0.09375 0
0.125 0.125 0
0.15625 0.125 0
0.15625 0.09375 0
0.1875 0.09375 0
0.15625 0.125 0
0.1875 0.125 0
0.1875 0.0625 0
0.21875 0.0625 0
0.1875 0.09375 0
0.21875 0.09375 0
0.21875 0.0625 0
0.25 0.0625 0
0.21875 0.09375 0
0.25 0.09375 0
0.1875 0.09375 0
0.21875 0.09375 0
0.1875 0.125 0
0.21875 0.125 0
0.21875 0.09375 0
0.25 0.09375 0
0.21875 0.125 0
0.25 0.125 0
0 0.125 0
0.03125 0.125 0
0 0.15625 0
0.03125 0.15625 0
0.03125 0.125 0
0.0625 0.125 0
0.03125 0.15625 0
0.0625 0.15625 0
0 0.15625 0
0.03125 0.15625 0
0 0.1875 0
0.03125 0.1875 0
0.03125 0.15625 0
0.0625 0.15625 0
0.03125 0.1875 0
0.0625 0.1875 0
0.0625 0.125 0
0.09375 0.125 0
0.0625 0.15625 0
0.09375 0.15625 0
0.09375 0.125 0
0.125 0.125 0
0.09375 0.15625 0
0.125 0.15625 0
0.0625 0.15625 0
0.09375 0.15625 0
0.0625 0.1875 0
0.09375 0.1875 0
0.09375 0.15625 0
0.125 0.15625 0
0.09375 0.1875 0
0.125 0.1875 0
0 0.1875 0
0.03125 0.1875 0
0 0.21875 0
0.03125 0.21875 0
0.03125 0.1875 0
0.0625 0.1875 0
0.03125 0.21875 0
0.0625 0.21875 0
0 0.21875 0
0.03125 0.21875 0
0 0.25 0
0.03125 0.25 0
0.03125 0.21875 0
0.0625 0.21875 0
0.03125 0.25 0
0.0625 0.25 0
0.0625 0.1875 0
0.09375 0.1875 0
0.0625 0.21875 0
0.09375 0.21875 0
0.09375 0.1875 0
0.125 0.1875 0
0.09375 0.21875 0
0.125 0.21875 0
0.0625 0.21875 0
0.09375 0.21875 0
0.0625 0.25 0
0.09375 0.25 0
0.09375 0.21875 0
0.125 0.21875 0
0.09375 0.25 0
0.125 0.25 0
0.125 0.125 0
0.15625 0.125 0
0.125 0.15625 0
0.15625 0.15625 0
0.15625 0.125 0
0.1875 0.125 0
0.15625 0.15625 0
0.1875 0.15625 0
0.125 0.15625 0
0.15625 0.15625 0
0.125 0.1875 0
0.15625 0.1875 0
0.15625 0.15625 0
0.1875 0.15625 0
0.15625 0.1875 0
0.1875 0.1875 0
0.1875 0.125 0
0.21875 0.125 0
0.1875 0.15625 0
0.21875 0.15625 0
0.21875 0.125 0
0.25 0.125 0
0.21875 0.15625 0
0.25 0.15625 0
0.1875 0.15625 0
0.21875 0.15625 0
0.1875 0.1875 0
0.21875 0.1875 0
0.21875 0.15625 0
0.25 0.15625 0
0.21875 0.1875 0
0.25 0.1875 0
0.125 0.1875 0
0.15625 0.1875 0
0.125 0.21875 0
0.15625 0.21875 0
0.15625 0.1875 0
0.1875 0.1875 0
0.15625 0.21875 0
0.1875 0.21875 0
0.125 0.21875 0
0.15625 0.21875 0
0.125 0.25 0
0.15625 0.25 0
0.15625 0.21875 0
0.1875 0.21875 0
0.15625 0.25 0
0.1875 0.25 0
0.1875 0.1875 0
0.21875 0.1875 0
0.1875 0.21875 0
0.21875 0.21875 0
0.21875 0.1875 0
0.25 0.1875 0
0.21875 0.21875 0
0.25 0.21875 0
0.1875 0.21875 0
0.21875 0.21875 0
0.1875 0.25 0
0.21875 0.25 0
0.21875 0.21875 0
0.25 0.21875 0
0.21875 0.25 0
0.25 0.25 0
0.25 0 0
0.28125 0 0
0.25 0.03125 0
0.28125 0.03125 0
0.28125 0 0
0.3125 0 0
0.28125 0.03125 0
0.3125 0.03125 0
0.25 0.03125 0
0.28125 0.03125 0
0.25 0.0625 0
0.28125 0.0625 0
0.28125 0.03125 0
0.3125 0.03125 0
0.28125 0.0625 0
0.3125 0.0625 0
0.3125 0 0
0.34375 0 0
0.3125 0.03125 0
0.34375 0.03125 0
0.34375 0 0
0.375 0 0
0.34375 0.03125 0
0.375 0.03125 0
0.3125 0.03125 0
0.34375 0.03125 0
0.3125 0.0625 0
0.34375 0.0625 0
0.34375 0.03125 0
0.375 0.03125 0
0.34375 0.0625 0
0.375 0.0625 0
0.25 0.0625 0
0.28125 0.0625 0
0.25 0.09375 0
0.28125 0.09375 0
0.28125 0.0625 0
0.3125 0.0625 0
0.28125 0.09375 0
0.3125 0.09375 0
0.25 0.09375 0
0.28125 0.09375 0
0.25 0.125 0
0.28125 0.125 0
0.28125 0.09375 0
0.3125 0.09375 0
0.28125 0.125 0
0.3125 0.125 0
0.3125 0.0625 0
0.34375 0.0625 0
0.3125 0.09375 0
0.34375 0.09375 0
0.34375 0.0625 0
0.375 0.0625 0
0.34375 0.09375 0
0.375 0.09375 0
0.3125 0.09375 0
0.34375 0.09375 0
0.3125 0.125 0
0.34375 0.125 0
0.34375 0.09375 0
0.375 0.09375 0
0.34375 0.125 0
0.375 0.125 0
0.375 0 0
0.40625 0 0
0.375 0.03125 0
0.40625 0.03125 0
0.40625 0 0
0.4375 0 0
0.40625 0.03125 0
0.4375 0.03125 0
0.375 0.03125 0
0.40625 0.03125 0
0.375 0.0625 0
0.40625 0.0625 0
0.40625 0.03125 0
0.4375 0.03125 0
0.40625 0.0625 0
0.4375 0.0625 0
0.4375 0 0
0.46875 0 0
0.4375 0.03125 0
0.46875 0.03125 0
0.46875 0 0
0.5 0 0
0.46875 0.03125 0
0.5 0.03125 0
0.4375 0.03125 0
0.46875 0.03125 0
0.4375 0.0625 0
0.46875 0.0625 0
0.46875 0.03125 0
0.5 0.03125 0
0.46875 0.0625 0
0.5 0.0625 0
0.375 0.0625 0
0.40625 0.0625 0
0.375 0.09375 0
0.40625 0.09375 0
0.40625 0.0625 0
0.4375 0.0625 0
0.40625 0.09375 0
0.4375 0.09375 0
0.375 0.09375 0
0.40625 0.09375 0
0.375 0.125 0
0.40625 0.125 0
0.40625 0.09375 0
0.4375 0.09375 0
0.40625 0.125 0
0.4375 0.125 0
0.4375 0.0625 0
0.46875 0.0625 0
0.4375 0.09375 0
0.46875 0.09375 0
0.46875 0.0625 0
0.5 0.0625 0
0.46875 0.09375 0
0.5 0.09375 0
0.4375 0.09375 0
0.46875 0.09375 0
0.4375 0.125 0
0.46875 0.125 0
0.46875 0.09375 0
0.5 0.09375 0
0.46875 0.125 0
0.5 0.125 0
0.25 0.125 0
0.28125 0.125 0
0.25 0.15625 0
0.28125 0.15625 0
0.28125 0.125 0
0.3125 0.125 0
0.28125 0.15625 0
0.3125 0.15625 0
0.25 0.15625 0
0.28125 0.15625 0
0.25 0.1875 0
0.28125 0.1875 0
0.28125 0.15625 0
0.3125 0.15625 0
0.28125 0.1875 0
0.3125 0.1875 0
0.3125 0.125 0
0.34375 0.125 0
0.3125 0.15625 0
0.34375 0.15625 0
0.34375 0.125 0
0.375 0.125 0
0.34375 0.15625 0
0.375 0.15625 0
0.3125 0.15625 0
0.34375 0.15625 0
0.3125 0.1875 0
0.34375 0.1875 0
0.34375 0.15625 0
0.375 0.15625 0
0.34375 0.1875 0
0.375 0.1875 0
0.25 0.1875 0
0.28125 0.1875 0
0.25 0.21875 0
0.28125 0.21875 0
0.28125 0.1875 0
0.3125 0.1875 0
0.28125 0.21875 0
0.3125 0.21875 0
0.25 0.21875 0
0.28125 0.21875 0
0.25 0.25 0
0.28125 0.25 0
0.28125 0.21875 0
0.3125 0.21875 0
0.28125 0.25 0
0.3125 0.25 0
0.3125 0.1875 0
0.34375 0.1875 0
0.3125 0.21875 0
0.34375 0.21875 0
0.34375 0.1875 0
0.375 0.1875 0
0.34375 0.21875 0
0.375 0.21875 0
0.3125 0.21875 0
0.34375 0.21875 0
0.3125 0.25 0
0.34375 0.25 0
0.34375 0.21875 0
0.375 0.21875 0
0.34375 0.25 0
0.375 0.25 0
0.375 0.125 0
0.40625 0.125 0
0.375 0.15625 0
0.40625 0.15625 0
0.40625 0.125 0
0.4375 0.125 0
0.40625 0.15625 0
0.4375 0.15625 0
0.375 0.15625 0
0.40625 0.15625 0
0.375 0.1875 0
0.40625 0.1875 0
0.40625 0.15625 0
0.4375 0.15625 0
0.40625 0.1875 0
0.4375 0.1875 0
0.4375 0.125 0
0.46875 0.125 0
0.4375 0.15625 0
0.46875 0.15625 0
0.46875 0.125 0
0.5 0.125 0
0.46875 0.15625 0
0.5 0.15625 0
0.4375 0.15625 0
0.46875 0.15625 0
0.4375 0.1875 0
0.46875 0.1875 0
0.46875 0.15625 0
0.5 0.15625 0
0.46875 0.1875 0
0.5 0.1875 0
0.375 0.1875 0
0.40625 0.1875 0
0.375 0.21875 0
0.40625 0.21875 0
0.40625 0.1875 0
0.4375 0.1875 0
0.40625 0.21875 0
0.4375 0.21875 0
0.375 0.21875 0
0.40625 0.21875 0
0.375 0.25 0
0.40625 0.25 0
0.40625 0.21875 0
0.4375 0.21875 0
0.40625 0.25 0
0.4375 0.25 0
0.4375 0.1875 0
0.46875 0.1875 0
0.4375 0.21875 0
0.46875 0.21875 0
0.46875 0.1875 0
0.5 0.1875 0
0.46875 0.21875 0
0.5 0.21875 0
0.4375 0.21875 0
0.46875 0.21875 0
0.4375 0.25 0
0.46875 0.25 0
0.46875 0.21875 0
0.5 0.21875 0
0.46875 0.25 0
0.5 0.25 0
0 0.25 0
0.03125 0.25 0
0 0.28125 0
0.03125 0.28125 0
0.03125 0.25 0
0.0625 0.25 0
0.03125 0.28125 0
0.0625 0.28125 0
0 0.28125 0
0.03125 0.28125 0
0 0.3125 0
0.03125 0.3125 0
0.03125 0.28125 0
0.0625 0.28125 0
0.03125 0.3125 0
0.0625 0.3125 0
0.0625 0.25 0
0.09375 0.25 0
0.0625 0.28125 0
0.09375 0.28125 0
0.09375 0.25 0
0.125 0.25 0
0.09375 0.28125 0
0.125 0.28125 0
0.0625 0.28125 0
0.09375 0.28125 0
0.0625 0.3125 0
0.09375 0.3125 0
0.09375 0.28125 0
0.125 0.28125 0
0.09375 0.3125 0
0.125 0.3125 0
0 0.3125 0
0.03125 0.3125 0
0 0.34375 0
0.03125 0.34375 0
0.03125 0.3125 0
0.0625 0.3125 0
0.03125 0.34375 0
0.0625 0.34375 0
0 0.34375 0
0.03125 0.34375 0
0 0.375 0
0.03125 0.375 0
0.03125 0.34375 0
0.0625 0.34375 0
0.03125 0.375 0
0.0625 0.375 0
0.0625 0.3125 0
0.09375 0.3125 0
0.0625 0.34375 0
0.09375 0.34375 0
0.09375 0.3125 0
0.125 0.3125 0
0.09375 0.34375 0
0.125 0.34375 0
0.0625 0.34375 0
0.09375 0.34375 0
0.0625 0.375 0
0.09375 0.375 0
0.09375 0.34375 0
0.125 0.34375 0
0.09375 0.375 0
0.125 0.375 0
0.125 0.25 0
0.15625 0.25 0
0.125 0.28125 0
0.15625 0.28125 0
0.15625 0.25 0
0.1875 0.25 0
0.15625 0.28125 0
0.1875 0.28125 0
0.125 0.28125 0
0.15625 0.28125 0
0.125 0.3125 0
0.15625 0.3125 0
0.15625 0.28125 0
0.1875 0.28125 0
0.15625 0.3125 0
0.1875 0.3125 0
0.1875 0.25 0
0.21875 0.25 0
0.1875 0.28125 0
0.21875 0.28125 0
0.21875 0.25 0
0.25 0.25 0
0.21875 0.28125 0
0.25 0.28125 0
0.1875 0.28125 0
0.21875 0.28125 0
0.1875 0.3125 0
0.21875 0.3125 0
0.21875 0.28125 0
0.25 0.28125 0
0.21875 0.3125 0
0.25 0.3125 0
0.125 0.3125 0
0.15625 0.3125 0
0.125 0.34375 0
0.15625 0.34375 0
0.15625 0.3125 0
0.1875 0.3125 0
0.15625 0.34375 0
0.1875 0.34375 0
0.125 0.34375 0
[...]
POINT_DATA 4096
SCALARS p double 1
LOOKUP_TABLE default
-6.90316e-06 7.30486e-05 -9.28426e-05 -1.10281e-05 7.30486e-05 0.000316124 -1.10281e-05 0.000121412 -9.28426e-05 -1.10281e-05 -0.000342286 -0.000146536 -1.10281e-05 0.000121412 -0.000146536 -1.07404e-05 0.000316124 0.000580613 0.000121412 0.000266974 0.000580613 0.000770455 0.000266974 0.000365529 0.000121412 0.000266974 -1.07404e-05 0.000125953 0.000266974 0.000365529 0.000125953 0.0002029 -0.000342286 -0.000146536 -0.000619686 -0.000296966 -0.000146536 -1.07404e-05 -0.000296966 -0.000143688 -0.000619686 -0.000296966 -0.00083089 -0.000399656 -0.000296966 -0.000143688 -0.000399656 -0.000212121 -1.07404e-05 0.000125953 -0.000143688 -1.98444e-06 0.000125953 0.0002029 -1.98444e-06 6.33007e-05 -0.000143688 -1.98444e-06 -0.000212121 -4.65256e-05 -1.98444e-06 6.33007e-05 -4.65256e-05 2.4783e-05 0.000770455 0.000839883 0.000365529 0.000386554 0.000839883 0.000772322 0.000386554 0.000314142 0.000365529 0.000386554 0.0002029 0.000202376 0.000386554 0.000314142 0.000202376 0.000109651 0.000772322 0.00056538 0.000314142 0.000142822 0.00056538 0.000223807 0.000142822 -0.000127034 0.000314142 0.000142822 0.000109651 -8.12381e-05 0.000142822 -0.000127034 -8.12381e-05 -0.000371303 0.0002029 0.000202376 6.33007e-05 5.15067e-05 0.000202376 0.000109651 5.15067e-05 -4.69107e-05 6.33007e-05 5.15067e-05 2.4783e-05 1.3e-05 5.15067e-05 -4.69107e-05 1.3e-05 -8.68004e-05 0.000109651 -8.12381e-05 -4.69107e-05 -0.000235524 -8.12381e-05 -0.000371303 -0.000235524 -0.000515192 -4.69107e-05 -0.000235524 -8.68004e-05 -0.000275337 -0.000235524 -0.000515192 -0.000275337 -0.000552437 -0.00083089 -0.000399656 -0.000927561 -0.000421288 -0.000399656 -0.000212121 -0.000421288 -0.000193387 -0.000927561 -0.000421288 -0.000885793 -0.000339512 -0.000421288 -0.000193387 -0.000339512 -6.47778e-05 -0.000212121 -4.65256e-05 -0.000193387 -7.67688e-07 -4.65256e-05 2.4783e-05 -7.67688e-07 8.37054e-05 -0.000193387 -7.67688e-07 -6.47778e-05 0.000153729 -7.67688e-07 8.37054e-05 0.000153729 0.000254789 -0.000885793 -0.000339512 -0.000692437 -0.000139873 -0.000339512 -6.47778e-05 -0.000139873 0.000190065 -0.000692437 -0.000139873 -0.000338902 0.00018837 -0.000139873 0.000190065 0.00018837 0.000584689 -6.47778e-05 0.000153729 0.000190065 0.000431397 0.000153729 0.000254789 0.000431397 0.000550173 0.000190065 0.000431397 0.000584689 0.000845692 0.000431397 0.000550173 0.000845692 0.000982502 2.4783e-05 1.3e-05 8.37054e-05 7.79492e-05 1.3e-05 -8.68004e-05 7.79492e-05 -1.91595e-05 8.37054e-05 7.79492e-05 0.000254789 0.000258008 7.79492e-05 -1.91595e-05 0.000258008 0.000165265 -8.68004e-05 -0.000275337 -1.91595e-05 -0.000205859 -0.000275337 -0.000552437 -0.000205859 -0.000480782 -1.91595e-05 -0.000205859 0.000165265 -1.98219e-05 -0.000205859 -0.000480782 -1.98219e-05 -0.000294798 0.000254789 0.000258008 0.000550173 0.000563164 0.000258008 0.000165265 0.000563164 0.000474941 0.000550173 0.000563164 0.000982502 0.00100492 0.000563164 0.000474941 0.00100492 0.000920344 0.000165265 -1.98219e-05 0.000474941 0.000290379 -1.98219e-05 -0.000294798 0.000290379 1.28037e-05 0.000474941 0.000290379 0.000920344 0.000734462 0.000290379 1.28037e-05 0.000734462 0.000451258 0.000223807 -0.000244371 -0.000127034 -0.000491736 -0.000244371 -0.000829724 -0.000491736 -0.000945689 -0.000127034 -0.000491736 -0.000371303 -0.000758194 -0.000491736 -0.000945689 -0.000758194 -0.00123734 -0.000829724 -0.00152215 -0.000945689 -0.00148207 -0.00152215 -0.00231093 -0.00148207 -0.00209305 -0.000945689 -0.00148207 -0.00123734 -0.00180255 -0.00148207 -0.00209305 -0.00180255 -0.00244617 -0.000371303 -0.000758194 -0.000515192 -0.000884349 -0.000758194 -0.00123734 -0.000884349 -0.00133955 -0.000515192 -0.000884349 -0.000552437 -0.000916484 -0.000884349 -0.00133955 -0.000916484 -0.00136449 -0.00123734 -0.00180255 -0.00133955 -0.00187577 -0.00180255 -0.00244617 -0.00187577 -0.00248647 -0.00133955 -0.00187577 -0.00136449 -0.00189212 -0.00187577 -0.00248647 -0.00189212 -0.00249357 -0.00231093 -0.00318452 -0.00209305 -0.00276977 -0.00318452 -0.0041301 -0.00276977 -0.00350218 -0.00209305 -0.00276977 -0.00244617 -0.00315924 -0.00276977 -0.00350218 -0.00315924 -0.00393129 -0.0041301 -0.00513332 -0.00350218 -0.00427895 -0.00513332 -0.006178 -0.00427895 -0.00508724 -0.00350218 -0.00427895 -0.00393129 -0.00475037 -0.00427895 -0.00508724 -0.00475037 -0.00560283 -0.00244617 -0.00315924 -0.00248647 -0.00316366 -0.00315924 -0.00393129 -0.00316366 -0.00389776 -0.00248647 -0.00316366 -0.00249357 -0.00316155 -0.00316366 -0.00389776 -0.00316155 -0.00388707 -0.00393129 -0.00475037 -0.00389776 -0.00467761 -0.00475037 -0.00560283 -0.00467761 -0.00549031 -0.00389776 -0.00467761 -0.00388707 -0.00465947 -0.00467761 -0.00549031 -0.00465947 -0.0054662 -0.000552437 -0.000916484 -0.000480782 -0.00084194 -0.000916484 -0.00136449 -0.00084194 -0.00128653 -0.000480782 -0.00084194 -0.000294798 -0.000657249 -0.00084194 -0.00128653 -0.000657249 -0.00110446 -0.00136449 -0.00189212 -0.00128653 -0.00181073 -0.00189212 -0.00249357 -0.00181073 -0.00240938 -0.00128653 -0.00181073 -0.00110446 -0.00163296 -0.00181073 -0.00240938 -0.00163296 -0.00223816 -0.000294798 -0.000657249 1.28037e-05 -0.000355052 -0.000657249 -0.00110446 -0.000355052 -0.000810558 1.28037e-05 -0.000355052 0.000451258 7.36563e-05 -0.000355052 -0.000810558 7.36563e-05 -0.000395849 -0.00110446 -0.00163296 -0.000810558 -0.00135059 -0.00163296 -0.00223816 -0.00135059 -0.00197102 -0.000810558 -0.00135059 -0.000395849 -0.000954495 -0.00135059 -0.00197102 -0.000954495 -0.0015987 -0.00249357 -0.00316155 -0.00240938 -0.0030758 -0.00316155 -0.00388707 -0.0030758 -0.0038016 -0.00240938 -0.0030758 -0.00223816 -0.00291393 -0.0030758 -0.0038016 -0.00291393 -0.00365239 -0.00388707 -0.00465947 -0.0038016 -0.00457656 -0.00465947 -0.0054662 -0.00457656 -0.00538846 -0.0038016 -0.00457656 -0.00365239 -0.00444369 -0.00457656 -0.00538846 -0.00444369 -0.0052758 -0.00223816 -0.00291393 -0.00197102 -0.00266629 -0.00291393 -0.00365239 -0.00266629 -0.00342902 -0.00197102 -0.00266629 -0.0015987 -0.00232348 -0.00266629 -0.00342902 -0.00232348 -0.00312199 -0.00365239 -0.00444369 -0.00342902 -0.00424971 -0.00444369 -0.0052758 -0.00424971 -0.00511642 -0.00342902 -0.00424971 -0.00312199 -0.0039851 -0.00424971 -0.00511642 -0.0039851 -0.004901 -0.000338902 0.00018837 0.000182419 0.000654571 0.00018837 0.000584689 0.000654571 0.00113129 0.000182419 0.000654571 0.000880166 0.00126837 0.000654571 0.00113129 0.00126837 0.00184227 0.000584689 0.000845692 0.00113129 0.00140937 0.000845692 0.000982502 0.00140937 0.00156447 0.00113129 0.00140937 0.00184227 0.00213567 0.00140937 0.00156447 0.00213567 0.00230969 0.000880166 0.00126837 0.00176519 0.00204071 0.00126837 0.00184227 0.00204071 0.00273123 0.00176519 0.00204071 0.00285123 0.00298465 0.00204071 0.00273123 0.00298465 0.00381395 0.00184227 0.00213567 0.00273123 0.00303903 0.00213567 0.00230969 0.00303903 0.00323318 0.00273123 0.00303903 0.00381395 0.00413597 0.00303903 0.00323318 0.00413597 0.00435208 0.000982502 0.00100492 0.00156447 0.00159554 0.00100492 0.000920344 0.00159554 0.00151326 0.00156447 0.00159554 0.00230969 0.00234865 0.00159554 0.00151326 0.00234865 0.00226723 0.000920344 0.000734462 0.00151326 0.00132384 0.000734462 0.000451258 0.00132384 0.0010318 0.00151326 0.00132384 0.00226723 0.00207199 0.00132384 0.0010318 0.00207199 0.00176804 0.00230969 0.00234865 0.00323318 0.00327953 0.00234865 0.00226723 0.00327953 0.00319769 0.00323318 0.00327953 0.00435208 0.00440564 0.00327953 0.00319769 0.00440564 0.00432244 0.00226723 0.00207199 0.00319769 0.00299463 0.00207199 0.00176804 0.00299463 0.00267612 0.00319769 0.00299463 0.00432244 0.00411 0.00299463 0.00267612 0.00411 0.00377491 0.00285123 0.00298465 0.00415537 0.00411584 0.00298465 0.00381395 0.00411584 0.00510898 0.00415537 0.00411584 0.00569842 0.00545316 0.00411584 0.00510898 0.00545316 0.00663847 0.00381395 0.00413597 0.00510898 0.00544568 0.00413597 0.00435208 0.00544568 0.00568616 0.00510898 0.00544568 0.00663847 0.00699081 0.00544568 0.00568616 0.00699081 0.00725856 0.00569842 0.00545316 0.0075055 0.00701937 0.00545316 0.00663847 0.00701937 0.00842894 0.0075055 0.00701937 0.00960686 0.00884206 0.00701937 0.00842894 0.00884206 0.0105126 0.00663847 0.00699081 0.00842894 0.00879823 0.00699081 0.00725856 0.00879823 0.00909638 0.00842894 0.00879823 0.0105126 0.0109002 0.00879823 0.00909638 0.0109002 0.0112317 0.00435208 0.00440564 0.00568616 0.00574715 0.00440564 0.00432244 0.00574715 0.00566202 0.00568616 0.00574715 0.00725856 0.00732741 0.00574715 0.00566202 0.00732741 0.00724001 0.00432244 0.00411 0.00566202 0.00543915 0.00411 0.00377491 0.00543915 0.00508623 0.00566202 0.00543915 0.00724001 0.00700608 0.00543915 0.00508623 0.00700608 0.00663486 0.00725856 0.00732741 0.00909638 0.00917342 0.00732741 0.00724001 0.00917342 0.00908337 0.00909638 0.00917342 0.0112317 0.0113165 0.00917342 0.00908337 0.0113165 0.0112228 0.00724001 0.00700608 0.00908337 0.00883794 0.00700608 0.00663486 0.00883794 0.00844847 0.00908337 0.00883794 0.0112228 0.010965 0.00883794 0.00844847 0.010965 0.0105574 0.000451258 7.36563e-05 0.0010318 0.000640172 7.36563e-05 -0.000395849 0.000640172 0.000151236 0.0010318 0.000640172 0.00176804 0.00135844 0.000640172 0.000151236 0.00135844 0.000845181 -0.000395849 -0.000954495 0.000151236 -0.000432698 -0.000954495 -0.0015987 -0.000432698 -0.00110871 0.000151236 -0.000432698 0.000845181 0.000229963 -0.000432698 -0.00110871 0.000229963 -0.0004851 0.00176804 0.00135844 0.00267612 0.00224525 0.00135844 0.000845181 0.00224525 0.0017036 0.00267612 0.00224525 0.00377491 0.00332033 0.00224525 0.0017036 0.00332033 0.00274737 0.000845181 0.000229963 0.0017036 0.00105213 0.000229963 -0.0004851 0.00105213 0.000291947 0.0017036 0.00105213 0.00274737 0.00205609 0.00105213 0.000291947 0.00205609 0.00124636 -0.0015987 -0.00232348 -0.00110871 -0.0018725 -0.00232348 -0.00312199 -0.0018725 -0.00271787 -0.00110871 -0.0018725 -0.0004851 -0.00129659 -0.0018725 -0.00271787 -0.00129659 -0.00219915 -0.00312199 -0.0039851 -0.00271787 -0.00363616 -0.0039851 -0.004901 -0.00363616 -0.00461581 -0.00271787 -0.00363616 -0.00219915 -0.00318483 -0.00363616 -0.00461581 -0.00318483 -0.00424251 -0.0004851 -0.00129659 0.000291947 -0.000574664 -0.00129659 -0.00219915 -0.000574664 -0.00154354 0.000291947 -0.000574664 0.00124636 0.000318982 -0.000574664 -0.00154354 0.000318982 -0.000723501 -0.00219915 -0.00318483 -0.00154354 -0.00260781 -0.00318483 -0.00424251 -0.00260781 -0.00375715 -0.00154354 -0.00260781 -0.000723501 -0.00187581 -0.00260781 -0.00375715 -0.00187581 -0.00312898 0.00377491 0.00332033 0.00508623 0.00460657 0.00332033 0.00274737 0.00460657 0.00400082 0.00508623 0.00460657 0.00663486 0.00612993 0.00460657 0.00400082 0.00612993 0.00549151 0.00274737 0.00205609 0.00400082 0.00326798 0.00205609 0.00124636 0.00326798 0.00240639 0.00400082 0.00326798 0.00549151 0.00471741 0.00326798 0.00240639 0.00471741 0.00380425 0.00663486 0.00612993 0.00844847 0.00791916 0.00612993 0.00549151 0.00791916 0.00724984 0.00844847 0.00791916 0.0105574 0.0100052 0.00791916 0.00724984 0.0100052 0.00930808 0.00549151 0.00471741 0.00724984 0.00643707 0.00471741 0.00380425 0.00643707 0.00547557 0.00724984 0.00643707 0.00930808 0.00846141 0.00643707 0.00547557 0.00846141 0.00745793 0.00124636 0.000318982 0.00240639 0.00141499 0.000318982 -0.000723501 0.00141499 0.000294202 0.00240639 0.00141499 0.00380425 0.00274867 0.00141499 0.000294202 0.00274867 0.00154843 -0.000723501 -0.00187581 0.000294202 -0.000952915 -0.00187581 -0.00312898 -0.000952915 -0.00231958 0.000294202 -0.000952915 0.00154843 0.000203593 -0.000952915 -0.00231958 0.000203593 -0.00128225 0.00380425 0.00274867 0.00547557 0.00435941 0.00274867 0.00154843 0.00435941 0.00308311 0.00547557 0.00435941 0.00745793 0.00628895 0.00435941 0.00308311 0.00628895 0.0049454 0.00154843 0.000203593 0.00308311 0.00164292 0.000203593 -0.00128225 0.00164292 3.81296e-05 0.00308311 0.00164292 0.0049454 0.00341901 0.00164292 3.81296e-05 0.00341901 0.00170358 -0.006178 -0.007246 -0.00508724 -0.00591274 -0.007246 -0.00831724 -0.00591274 -0.00673971 -0.00508724 -0.00591274 -0.00560283 -0.00647347 -0.00591274 -0.00673971 -0.00647347 -0.00734551 -0.00831724 -0.00936983 -0.00673971 -0.00755111 -0.00936983 -0.0103804 -0.00755111 -0.00832892 -0.00673971 -0.00755111 -0.00734551 -0.00820091 -0.00755111 -0.00832892 -0.00820091 -0.00902069 -0.00560283 -0.00647347 -0.00549031 -0.00632135 -0.00647347 -0.00734551 -0.00632135 -0.00715466 -0.00549031 -0.00632135 -0.0054662 -0.00629295 -0.00632135 -0.00715466 -0.00629295 -0.00712375 -0.00734551 -0.00820091 -0.00715466 -0.00797291 -0.00820091 -0.00902069 -0.00797291 -0.00875782 -0.00715466 -0.00797291 -0.00712375 -0.00794124 -0.00797291 -0.00875782 -0.00794124 -0.00872692 -0.0103804 -0.0113245 -0.00832892 -0.00905462 -0.0113245 -0.0121775 -0.00905462 -0.00970977 -0.00832892 -0.00905462 -0.00902069 -0.00978545 -0.00905462 -0.00970977 -0.00978545 -0.0104761 -0.0121775 -0.0129154 -0.00970977 -0.0102769 -0.0129154 -0.0135157 -0.0102769 -0.0107404 -0.00970977 -0.0102769 -0.0104761 -0.0110749 -0.0102769 -0.0107404 -0.0110749 -0.0115665 -0.00902069 -0.00978545 -0.00875782 -0.00949077 -0.00978545 -0.0104761 -0.00949077 -0.0101535 -0.00875782 -0.00949077 -0.00872692 -0.00946192 -0.00949077 -0.0101535 -0.00946192 -0.0101277 -0.0104761 -0.0110749 -0.0101535 -0.0107293 -0.0110749 -0.0115665 -0.0107293 -0.0112035 -0.0101535 -0.0107293 -0.0101277 -0.010707 -0.0107293 -0.0112035 -0.010707 -0.0111851 -0.0054662 -0.00629295 -0.00538846 -0.00622308 -0.00629295 -0.00712375 -0.00622308 -0.00706436 -0.00538846 -0.00622308 -0.0052758 -0.00613448 -0.00622308 -0.00706436 -0.00613448 -0.00700326 -0.00712375 -0.00794124 -0.00706436 -0.00789459 -0.00794124 -0.00872692 -0.00789459 -0.00869468 -0.00706436 -0.00789459 -0.00700326 -0.00786372 -0.00789459 -0.00869468 -0.00786372 -0.00869579 -0.0052758 -0.00613448 -0.00511642 -0.00601477 -0.00613448 -0.00700326 -0.00601477 -0.00692768 -0.00511642 -0.00601477 -0.004901 -0.00585507 -0.00601477 -0.00692768 -0.00585507 -0.00682949 -0.00700326 -0.00786372 -0.00692768 -0.00783572 -0.00786372 -0.00869579 -0.00783572 -0.00871733 -0.00692768 -0.00783572 -0.00682949 -0.00780348 -0.00783572 -0.00871733 -0.00780348 -0.00875358 -0.00872692 -0.00946192 -0.00869468 -0.00944501 -0.00946192 -0.0101277 -0.00944501 -0.0101261 -0.00869468 -0.00944501 -0.00869579 -0.00947844 -0.00944501 -0.0101261 -0.00947844 -0.0101906 -0.0101277 -0.010707 -0.0101261 -0.0107196 -0.010707 -0.0111851 -0.0107196 -0.0112097 -0.0101261 -0.0107196 -0.0101906 -0.0108121 -0.0107196 -0.0112097 -0.0108121 -0.0113252 -0.00869579 -0.00947844 -0.00871733 -0.00954956 -0.00947844 -0.0101906 -0.00954956 -0.010309 -0.00871733 -0.00954956 -0.00875358 -0.00965428 -0.00954956 -0.010309 -0.00965428 -0.0104791 -0.0101906 -0.0108121 -0.010309 -0.0109729 -0.0108121 -0.0113252 -0.0109729 -0.0115211 -0.010309 -0.0109729 -0.0104791 -0.011202 -0.0109729 -0.0115211 -0.011202 -0.0117992 -0.0135157 -0.0139597 -0.0107404 -0.011088 -0.0139597 -0.0142338 -0.011088 -0.0113125 -0.0107404 -0.011088 -0.0115665 -0.0119391 -0.011088 -0.0113125 -0.0119391 -0.0121869 -0.0142338 -0.0143344 -0.0113125 -0.0114115 -0.0143344 -0.0142628 -0.0114115 -0.0114056 -0.0113125 -0.0114115 -0.0121869 -0.0123092 -0.0114115 -0.0114056 -0.0123092 -0.0123245 -0.0115665 -0.0119391 -0.0112035 -0.0115656 -0.0119391 -0.0121869 -0.0115656 -0.0118101 -0.0112035 -0.0115656 -0.0111851 -0.0115508 -0.0115656 -0.0118101 -0.0115508 -0.0117981 -0.0121869 -0.0123092 -0.0118101 -0.011936 -0.0123092 -0.0123245 -0.011936 -0.0119604 -0.0118101 -0.011936 -0.0117981 -0.0119248 -0.011936 -0.0119604 -0.0119248 -0.0119456 -0.0142628 -0.0140768 -0.0114056 -0.0112575 -0.0140768 -0.0137856 -0.0112575 -0.0113178 -0.0114056 -0.0112575 -0.0123245 -0.0122033 -0.0112575 -0.0113178 -0.0122033 -0.0122577 -0.0137856 -0.0128774 -0.0113178 -0.0100773 -0.0128774 -0.0140157 -0.0100773 -0.012703 -0.0113178 -0.0100773 -0.0122577 -0.0110277 -0.0100773 -0.012703 -0.0110277 -0.0130832 -0.0123245 -0.0122033 -0.0119604 -0.0118461 -0.0122033 -0.0122577 -0.0118461 -0.0119027 -0.0119604 -0.0118461 -0.0119456 -0.0118207 -0.0118461 -0.0119027 -0.0118207 -0.0118454 -0.0122577 -0.0110277 -0.0119027 -0.0106395 -0.0110277 -0.0130832 -0.0106395 -0.0127828 -0.0119027 -0.0106395 -0.0118454 -0.0105512 -0.0106395 -0.0127828 -0.0105512 -0.0125161 -0.0111851 -0.0115508 -0.0112097 -0.0115841 -0.0115508 -0.0117981 -0.0115841 -0.0118355 -0.0112097 -0.0115841 -0.0113252 -0.011716 -0.0115841 -0.0118355 -0.011716 -0.0119755 -0.0117981 -0.0119248 -0.0118355 -0.0119605 -0.0119248 -0.0119456 -0.0119605 -0.0119715 -0.0118355 -0.0119605 -0.0119755 -0.012099 -0.0119605 -0.0119715 -0.012099 -0.0120976 -0.0113252 -0.011716 -0.0115211 -0.011937 -0.011716 -0.0119755 -0.011937 -0.0122101 -0.0115211 -0.011937 -0.0117992 -0.0122513 -0.011937 -0.0122101 -0.0122513 -0.0125451 -0.0119755 -0.012099 -0.0122101 -0.012334 -0.012099 -0.0120976 -0.012334 -0.0123197 -0.0122101 -0.012334 -0.0125451 -0.0126731 -0.012334 -0.0123197 -0.0126731 -0.0126464 -0.0119456 -0.0118207 -0.0119715 -0.0118267 -0.0118207 -0.0118454 -0.0118267 -0.0118165 -0.0119715 -0.0118267 -0.0120976 -0.0119286 -0.0118267 -0.0118165 -0.0119286 -0.0118821 -0.0118454 -0.0105512 -0.0118165 -0.0104795 -0.0105512 -0.0125161 -0.0104795 -0.0123732 -0.0118165 -0.0104795 -0.0118821 -0.0104987 -0.0104795 -0.0123732 -0.0104987 -0.0123356 -0.0120976 -0.0119286 -0.0123197 -0.0121244 -0.0119286 -0.0118821 -0.0121244 -0.012042 -0.0123197 -0.0121244 -0.0126464 -0.0124227 -0.0121244 -0.012042 -0.0124227 -0.0123041 -0.0118821 -0.0104987 -0.012042 -0.0106042 -0.0104987 -0.0123356 -0.0106042 -0.0124115 -0.012042 -0.0106042 -0.0123041 -0.0108009 -0.0106042 -0.0124115 -0.0108009 -0.012597 -0.004901 -0.00585507 -0.00461581 -0.00564194 -0.00585507 -0.00682949 -0.00564194 -0.00669594 -0.00461581 -0.00564194 -0.00424251 -0.00535727 -0.00564194 -0.00669594 -0.00535727 -0.00650972 -0.00682949 -0.00780348 -0.00669594 -0.00775549 -0.00780348 -0.00875358 -0.00775549 -0.00879477 -0.00669594 -0.00775549 -0.00650972 -0.0076759 -0.00775549 -0.00879477 -0.0076759 -0.00882733 -0.00424251 -0.00535727 -0.00375715 -0.00497691 -0.00535727 -0.00650972 -0.00497691 -0.00624724 -0.00375715 -0.00497691 -0.00312898 -0.00446923 -0.00497691 -0.00624724 -0.00446923 -0.00587683 -0.00650972 -0.0076759 -0.00624724 -0.00754263 -0.0076759 -0.00882733 -0.00754263 -0.0088317 -0.00624724 -0.00754263 -0.00587683 -0.00732513 -0.00754263 -0.0088317 -0.00732513 -0.00877988 -0.00875358 -0.00965428 -0.00879477 -0.00978513 -0.00965428 -0.0104791 -0.00978513 -0.0106961 -0.00879477 -0.00978513 -0.00882733 -0.00993153 -0.00978513 -0.0106961 -0.00993153 -0.0109532 -0.0104791 -0.011202 -0.0106961 -0.0114974 -0.011202 -0.0117992 -0.0114974 -0.0121606 -0.0106961 -0.0114974 -0.0109532 -0.0118562 -0.0114974 -0.0121606 -0.0118562 -0.0126064 -0.00882733 -0.00993153 -0.0088317 -0.0100775 -0.00993153 -0.0109532 -0.0100775 -0.0112389 -0.0088317 -0.0100775 -0.00877988 -0.0101993 -0.0100775 -0.0112389 -0.0101993 -0.0115351 -0.0109532 -0.0118562 -0.0112389 -0.0122724 -0.0118562 -0.0126064 -0.0122724 -0.0131362 -0.0112389 -0.0122724 -0.0115351 -0.0127349 -0.0122724 -0.0131362 -0.0127349 -0.0137465 -0.00312898 -0.00446923 -0.00231958 -0.00379382 -0.00446923 -0.00587683 -0.00379382 -0.00535695 -0.00231958 -0.00379382 -0.00128225 -0.00290015 -0.00379382 -0.00535695 -0.00290015 -0.00463394 -0.00587683 -0.00732513 -0.00535695 -0.00698198 -0.00732513 -0.00877988 -0.00698198 -0.00863241 -0.00535695 -0.00698198 -0.00463394 -0.00645785 -0.00698198 -0.00863241 -0.00645785 -0.00833442 -0.00128225 -0.00290015 3.81296e-05 -0.00172695 -0.00290015 -0.00463394 -0.00172695 -0.00364066 3.81296e-05 -0.00172695 0.00170358 -0.000202974 -0.00172695 -0.00364066 -0.000202974 -0.00229605 -0.00463394 -0.00645785 -0.00364066 -0.00568083 -0.00645785 -0.00833442 -0.00568083 -0.00781147 -0.00364066 -0.00568083 -0.00229605 -0.00