# vtk DataFile Version 3.0
#This file was generated by the deal.II library on 2026/1/5 at 14:19:33
ASCII
DATASET UNSTRUCTURED_GRID

POINTS 4096 double
0 0 0
0.03125 0 0
0 0.03125 0
0.03125 0.03125 0
0.03125 0 0
0.0625 0 0
0.03125 0.03125 0
0.0625 0.03125 0
0 0.03125 0
0.03125 0.03125 0
0 0.0625 0
0.03125 0.0625 0
0.03125 0.03125 0
0.0625 0.03125 0
0.03125 0.0625 0
0.0625 0.0625 0
0.0625 0 0
0.09375 0 0
0.0625 0.03125 0
0.09375 0.03125 0
0.09375 0 0
0.125 0 0
0.09375 0.03125 0
0.125 0.03125 0
0.0625 0.03125 0
0.09375 0.03125 0
0.0625 0.0625 0
0.09375 0.0625 0
0.09375 0.03125 0
0.125 0.03125 0
0.09375 0.0625 0
0.125 0.0625 0
0 0.0625 0
0.03125 0.0625 0
0 0.09375 0
0.03125 0.09375 0
0.03125 0.0625 0
0.0625 0.0625 0
0.03125 0.09375 0
0.0625 0.09375 0
0 0.09375 0
0.03125 0.09375 0
0 0.125 0
0.03125 0.125 0
0.03125 0.09375 0
0.0625 0.09375 0
0.03125 0.125 0
0.0625 0.125 0
0.0625 0.0625 0
0.09375 0.0625 0
0.0625 0.09375 0
0.09375 0.09375 0
0.09375 0.0625 0
0.125 0.0625 0
0.09375 0.09375 0
0.125 0.09375 0
0.0625 0.09375 0
0.09375 0.09375 0
0.0625 0.125 0
0.09375 0.125 0
0.09375 0.09375 0
0.125 0.09375 0
0.09375 0.125 0
0.125 0.125 0
0.125 0 0
0.15625 0 0
0.125 0.03125 0
0.15625 0.03125 0
0.15625 0 0
0.1875 0 0
0.15625 0.03125 0
0.1875 0.03125 0
0.125 0.03125 0
0.15625 0.03125 0
0.125 0.0625 0
0.15625 0.0625 0
0.15625 0.03125 0
0.1875 0.03125 0
0.15625 0.0625 0
0.1875 0.0625 0
0.1875 0 0
0.21875 0 0
0.1875 0.03125 0
0.21875 0.03125 0
0.21875 0 0
0.25 0 0
0.21875 0.03125 0
0.25 0.03125 0
0.1875 0.03125 0
0.21875 0.03125 0
0.1875 0.0625 0
0.21875 0.0625 0
0.21875 0.03125 0
0.25 0.03125 0
0.21875 0.0625 0
0.25 0.0625 0
0.125 0.0625 0
0.15625 0.0625 0
0.125 0.09375 0
0.15625 0.09375 0
0.15625 0.0625 0
0.1875 0.0625 0
0.15625 0.09375 0
0.1875 0.09375 0
0.125 0.09375 0
0.15625 0.09375 0
0.125 0.125 0
0.15625 0.125 0
0.15625 0.09375 0
0.1875 0.09375 0
0.15625 0.125 0
0.1875 0.125 0
0.1875 0.0625 0
0.21875 0.0625 0
0.1875 0.09375 0
0.21875 0.09375 0
0.21875 0.0625 0
0.25 0.0625 0
0.21875 0.09375 0
0.25 0.09375 0
0.1875 0.09375 0
0.21875 0.09375 0
0.1875 0.125 0
0.21875 0.125 0
0.21875 0.09375 0
0.25 0.09375 0
0.21875 0.125 0
0.25 0.125 0
0 0.125 0
0.03125 0.125 0
0 0.15625 0
0.03125 0.15625 0
0.03125 0.125 0
0.0625 0.125 0
0.03125 0.15625 0
0.0625 0.15625 0
0 0.15625 0
0.03125 0.15625 0
0 0.1875 0
0.03125 0.1875 0
0.03125 0.15625 0
0.0625 0.15625 0
0.03125 0.1875 0
0.0625 0.1875 0
0.0625 0.125 0
0.09375 0.125 0
0.0625 0.15625 0
0.09375 0.15625 0
0.09375 0.125 0
0.125 0.125 0
0.09375 0.15625 0
0.125 0.15625 0
0.0625 0.15625 0
0.09375 0.15625 0
0.0625 0.1875 0
0.09375 0.1875 0
0.09375 0.15625 0
0.125 0.15625 0
0.09375 0.1875 0
0.125 0.1875 0
0 0.1875 0
0.03125 0.1875 0
0 0.21875 0
0.03125 0.21875 0
0.03125 0.1875 0
0.0625 0.1875 0
0.03125 0.21875 0
0.0625 0.21875 0
0 0.21875 0
0.03125 0.21875 0
0 0.25 0
0.03125 0.25 0
0.03125 0.21875 0
0.0625 0.21875 0
0.03125 0.25 0
0.0625 0.25 0
0.0625 0.1875 0
0.09375 0.1875 0
0.0625 0.21875 0
0.09375 0.21875 0
0.09375 0.1875 0
0.125 0.1875 0
0.09375 0.21875 0
0.125 0.21875 0
0.0625 0.21875 0
0.09375 0.21875 0
0.0625 0.25 0
0.09375 0.25 0
0.09375 0.21875 0
0.125 0.21875 0
0.09375 0.25 0
0.125 0.25 0
0.125 0.125 0
0.15625 0.125 0
0.125 0.15625 0
0.15625 0.15625 0
0.15625 0.125 0
0.1875 0.125 0
0.15625 0.15625 0
0.1875 0.15625 0
0.125 0.15625 0
0.15625 0.15625 0
0.125 0.1875 0
0.15625 0.1875 0
0.15625 0.15625 0
0.1875 0.15625 0
0.15625 0.1875 0
0.1875 0.1875 0
0.1875 0.125 0
0.21875 0.125 0
0.1875 0.15625 0
0.21875 0.15625 0
0.21875 0.125 0
0.25 0.125 0
0.21875 0.15625 0
0.25 0.15625 0
0.1875 0.15625 0
0.21875 0.15625 0
0.1875 0.1875 0
0.21875 0.1875 0
0.21875 0.15625 0
0.25 0.15625 0
0.21875 0.1875 0
0.25 0.1875 0
0.125 0.1875 0
0.15625 0.1875 0
0.125 0.21875 0
0.15625 0.21875 0
0.15625 0.1875 0
0.1875 0.1875 0
0.15625 0.21875 0
0.1875 0.21875 0
0.125 0.21875 0
0.15625 0.21875 0
0.125 0.25 0
0.15625 0.25 0
0.15625 0.21875 0
0.1875 0.21875 0
0.15625 0.25 0
0.1875 0.25 0
0.1875 0.1875 0
0.21875 0.1875 0
0.1875 0.21875 0
0.21875 0.21875 0
0.21875 0.1875 0
0.25 0.1875 0
0.21875 0.21875 0
0.25 0.21875 0
0.1875 0.21875 0
0.21875 0.21875 0
0.1875 0.25 0
0.21875 0.25 0
0.21875 0.21875 0
0.25 0.21875 0
0.21875 0.25 0
0.25 0.25 0
0.25 0 0
0.28125 0 0
0.25 0.03125 0
0.28125 0.03125 0
0.28125 0 0
0.3125 0 0
0.28125 0.03125 0
0.3125 0.03125 0
0.25 0.03125 0
0.28125 0.03125 0
0.25 0.0625 0
0.28125 0.0625 0
0.28125 0.03125 0
0.3125 0.03125 0
0.28125 0.0625 0
0.3125 0.0625 0
0.3125 0 0
0.34375 0 0
0.3125 0.03125 0
0.34375 0.03125 0
0.34375 0 0
0.375 0 0
0.34375 0.03125 0
0.375 0.03125 0
0.3125 0.03125 0
0.34375 0.03125 0
0.3125 0.0625 0
0.34375 0.0625 0
0.34375 0.03125 0
0.375 0.03125 0
0.34375 0.0625 0
0.375 0.0625 0
0.25 0.0625 0
0.28125 0.0625 0
0.25 0.09375 0
0.28125 0.09375 0
0.28125 0.0625 0
0.3125 0.0625 0
0.28125 0.09375 0
0.3125 0.09375 0
0.25 0.09375 0
0.28125 0.09375 0
0.25 0.125 0
0.28125 0.125 0
0.28125 0.09375 0
0.3125 0.09375 0
0.28125 0.125 0
0.3125 0.125 0
0.3125 0.0625 0
0.34375 0.0625 0
0.3125 0.09375 0
0.34375 0.09375 0
0.34375 0.0625 0
0.375 0.0625 0
0.34375 0.09375 0
0.375 0.09375 0
0.3125 0.09375 0
0.34375 0.09375 0
0.3125 0.125 0
0.34375 0.125 0
0.34375 0.09375 0
0.375 0.09375 0
0.34375 0.125 0
0.375 0.125 0
0.375 0 0
0.40625 0 0
0.375 0.03125 0
0.40625 0.03125 0
0.40625 0 0
0.4375 0 0
0.40625 0.03125 0
0.4375 0.03125 0
0.375 0.03125 0
0.40625 0.03125 0
0.375 0.0625 0
0.40625 0.0625 0
0.40625 0.03125 0
0.4375 0.03125 0
0.40625 0.0625 0
0.4375 0.0625 0
0.4375 0 0
0.46875 0 0
0.4375 0.03125 0
0.46875 0.03125 0
0.46875 0 0
0.5 0 0
0.46875 0.03125 0
0.5 0.03125 0
0.4375 0.03125 0
0.46875 0.03125 0
0.4375 0.0625 0
0.46875 0.0625 0
0.46875 0.03125 0
0.5 0.03125 0
0.46875 0.0625 0
0.5 0.0625 0
0.375 0.0625 0
0.40625 0.0625 0
0.375 0.09375 0
0.40625 0.09375 0
0.40625 0.0625 0
0.4375 0.0625 0
0.40625 0.09375 0
0.4375 0.09375 0
0.375 0.09375 0
0.40625 0.09375 0
0.375 0.125 0
0.40625 0.125 0
0.40625 0.09375 0
0.4375 0.09375 0
0.40625 0.125 0
0.4375 0.125 0
0.4375 0.0625 0
0.46875 0.0625 0
0.4375 0.09375 0
0.46875 0.09375 0
0.46875 0.0625 0
0.5 0.0625 0
0.46875 0.09375 0
0.5 0.09375 0
0.4375 0.09375 0
0.46875 0.09375 0
0.4375 0.125 0
0.46875 0.125 0
0.46875 0.09375 0
0.5 0.09375 0
0.46875 0.125 0
0.5 0.125 0
0.25 0.125 0
0.28125 0.125 0
0.25 0.15625 0
0.28125 0.15625 0
0.28125 0.125 0
0.3125 0.125 0
0.28125 0.15625 0
0.3125 0.15625 0
0.25 0.15625 0
0.28125 0.15625 0
0.25 0.1875 0
0.28125 0.1875 0
0.28125 0.15625 0
0.3125 0.15625 0
0.28125 0.1875 0
0.3125 0.1875 0
0.3125 0.125 0
0.34375 0.125 0
0.3125 0.15625 0
0.34375 0.15625 0
0.34375 0.125 0
0.375 0.125 0
0.34375 0.15625 0
0.375 0.15625 0
0.3125 0.15625 0
0.34375 0.15625 0
0.3125 0.1875 0
0.34375 0.1875 0
0.34375 0.15625 0
0.375 0.15625 0
0.34375 0.1875 0
0.375 0.1875 0
0.25 0.1875 0
0.28125 0.1875 0
0.25 0.21875 0
0.28125 0.21875 0
0.28125 0.1875 0
0.3125 0.1875 0
0.28125 0.21875 0
0.3125 0.21875 0
0.25 0.21875 0
0.28125 0.21875 0
0.25 0.25 0
0.28125 0.25 0
0.28125 0.21875 0
0.3125 0.21875 0
0.28125 0.25 0
0.3125 0.25 0
0.3125 0.1875 0
0.34375 0.1875 0
0.3125 0.21875 0
0.34375 0.21875 0
0.34375 0.1875 0
0.375 0.1875 0
0.34375 0.21875 0
0.375 0.21875 0
0.3125 0.21875 0
0.34375 0.21875 0
0.3125 0.25 0
0.34375 0.25 0
0.34375 0.21875 0
0.375 0.21875 0
0.34375 0.25 0
0.375 0.25 0
0.375 0.125 0
0.40625 0.125 0
0.375 0.15625 0
0.40625 0.15625 0
0.40625 0.125 0
0.4375 0.125 0
0.40625 0.15625 0
0.4375 0.15625 0
0.375 0.15625 0
0.40625 0.15625 0
0.375 0.1875 0
0.40625 0.1875 0
0.40625 0.15625 0
0.4375 0.15625 0
0.40625 0.1875 0
0.4375 0.1875 0
0.4375 0.125 0
0.46875 0.125 0
0.4375 0.15625 0
0.46875 0.15625 0
0.46875 0.125 0
0.5 0.125 0
0.46875 0.15625 0
0.5 0.15625 0
0.4375 0.15625 0
0.46875 0.15625 0
0.4375 0.1875 0
0.46875 0.1875 0
0.46875 0.15625 0
0.5 0.15625 0
0.46875 0.1875 0
0.5 0.1875 0
0.375 0.1875 0
0.40625 0.1875 0
0.375 0.21875 0
0.40625 0.21875 0
0.40625 0.1875 0
0.4375 0.1875 0
0.40625 0.21875 0
0.4375 0.21875 0
0.375 0.21875 0
0.40625 0.21875 0
0.375 0.25 0
0.40625 0.25 0
0.40625 0.21875 0
0.4375 0.21875 0
0.40625 0.25 0
0.4375 0.25 0
0.4375 0.1875 0
0.46875 0.1875 0
0.4375 0.21875 0
0.46875 0.21875 0
0.46875 0.1875 0
0.5 0.1875 0
0.46875 0.21875 0
0.5 0.21875 0
0.4375 0.21875 0
0.46875 0.21875 0
0.4375 0.25 0
0.46875 0.25 0
0.46875 0.21875 0
0.5 0.21875 0
0.46875 0.25 0
0.5 0.25 0
0 0.25 0
0.03125 0.25 0
0 0.28125 0
0.03125 0.28125 0
0.03125 0.25 0
0.0625 0.25 0
0.03125 0.28125 0
0.0625 0.28125 0
0 0.28125 0
0.03125 0.28125 0
0 0.3125 0
0.03125 0.3125 0
0.03125 0.28125 0
0.0625 0.28125 0
0.03125 0.3125 0
0.0625 0.3125 0
0.0625 0.25 0
0.09375 0.25 0
0.0625 0.28125 0
0.09375 0.28125 0
0.09375 0.25 0
0.125 0.25 0
0.09375 0.28125 0
0.125 0.28125 0
0.0625 0.28125 0
0.09375 0.28125 0
0.0625 0.3125 0
0.09375 0.3125 0
0.09375 0.28125 0
0.125 0.28125 0
0.09375 0.3125 0
0.125 0.3125 0
0 0.3125 0
0.03125 0.3125 0
0 0.34375 0
0.03125 0.34375 0
0.03125 0.3125 0
0.0625 0.3125 0
0.03125 0.34375 0
0.0625 0.34375 0
0 0.34375 0
0.03125 0.34375 0
0 0.375 0
0.03125 0.375 0
0.03125 0.34375 0
0.0625 0.34375 0
0.03125 0.375 0
0.0625 0.375 0
0.0625 0.3125 0
0.09375 0.3125 0
0.0625 0.34375 0
0.09375 0.34375 0
0.09375 0.3125 0
0.125 0.3125 0
0.09375 0.34375 0
0.125 0.34375 0
0.0625 0.34375 0
0.09375 0.34375 0
0.0625 0.375 0
0.09375 0.375 0
0.09375 0.34375 0
0.125 0.34375 0
0.09375 0.375 0
0.125 0.375 0
0.125 0.25 0
0.15625 0.25 0
0.125 0.28125 0
0.15625 0.28125 0
0.15625 0.25 0
0.1875 0.25 0
0.15625 0.28125 0
0.1875 0.28125 0
0.125 0.28125 0
0.15625 0.28125 0
0.125 0.3125 0
0.15625 0.3125 0
0.15625 0.28125 0
0.1875 0.28125 0
0.15625 0.3125 0
0.1875 0.3125 0
0.1875 0.25 0
0.21875 0.25 0
0.1875 0.28125 0
0.21875 0.28125 0
0.21875 0.25 0
0.25 0.25 0
0.21875 0.28125 0
0.25 0.28125 0
0.1875 0.28125 0
0.21875 0.28125 0
0.1875 0.3125 0
0.21875 0.3125 0
0.21875 0.28125 0
0.25 0.28125 0
0.21875 0.3125 0
0.25 0.3125 0
0.125 0.3125 0
0.15625 0.3125 0
0.125 0.34375 0
0.15625 0.34375 0
0.15625 0.3125 0
0.1875 0.3125 0
0.15625 0.34375 0
0.1875 0.34375 0
0.125 0.34375 0
[...]
POINT_DATA 4096
SCALARS p double 1
LOOKUP_TABLE default
-1.77211e-05 7.58631e-05 -0.000125277 -2.84465e-05 7.58631e-05 0.000317691 -2.84465e-05 9.66715e-05 -0.000125277 -2.84465e-05 -0.00037119 -0.000154165 -2.84465e-05 9.66715e-05 -0.000154165 -2.56858e-05 0.000317691 0.000531636 9.66715e-05 0.00020623 0.000531636 0.000628052 0.00020623 0.000239968 9.66715e-05 0.00020623 -2.56858e-05 7.35921e-05 0.00020623 0.000239968 7.35921e-05 8.57571e-05 -0.00037119 -0.000154165 -0.00059505 -0.000265064 -0.000154165 -2.56858e-05 -0.000265064 -0.00011801 -0.00059505 -0.000265064 -0.000708502 -0.000299964 -0.000265064 -0.00011801 -0.000299964 -0.000119296 -2.56858e-05 7.35921e-05 -0.00011801 -1.40828e-05 7.35921e-05 8.57571e-05 -1.40828e-05 -9.52831e-06 -0.00011801 -1.40828e-05 -0.000119296 3.0327e-06 -1.40828e-05 -9.52831e-06 3.0327e-06 1.24673e-05 0.000628052 0.000573845 0.000239968 0.000173758 0.000573845 0.000364157 0.000173758 -2.10166e-06 0.000239968 0.000173758 8.57571e-05 -2.21919e-06 0.000173758 -2.10166e-06 -2.21919e-06 -0.0002004 0.000364157 5.12124e-06 -2.10166e-06 -0.000287922 5.12124e-06 -0.000493145 -0.000287922 -0.000679538 -2.10166e-06 -0.000287922 -0.0002004 -0.000510674 -0.000287922 -0.000679538 -0.000510674 -0.000930662 8.57571e-05 -2.21919e-06 -9.52831e-06 -0.000102709 -2.21919e-06 -0.0002004 -0.000102709 -0.000300016 -9.52831e-06 -0.000102709 1.24673e-05 -8.07886e-05 -0.000102709 -0.000300016 -8.07886e-05 -0.000279387 -0.0002004 -0.000510674 -0.000300016 -0.000602416 -0.000510674 -0.000930662 -0.000602416 -0.00100821 -0.000300016 -0.000602416 -0.000279387 -0.000582517 -0.000602416 -0.00100821 -0.000582517 -0.000988075 -0.000708502 -0.000299964 -0.000674771 -0.000230224 -0.000299964 -0.000119296 -0.000230224 -1.02134e-05 -0.000674771 -0.000230224 -0.000481416 -3.95602e-05 -0.000230224 -1.02134e-05 -3.95602e-05 0.000227256 -0.000119296 3.0327e-06 -1.02134e-05 0.000130617 3.0327e-06 1.24673e-05 0.000130617 0.000149621 -1.02134e-05 0.000130617 0.000227256 0.000383518 0.000130617 0.000149621 0.000383518 0.000413424 -0.000481416 -3.95602e-05 -0.000123881 0.000281198 -3.95602e-05 0.000227256 0.000281198 0.000604988 -0.000123881 0.000281198 0.000401278 0.000739134 0.000281198 0.000604988 0.000739134 0.00113309 0.000227256 0.000383518 0.000604988 0.000772768 0.000383518 0.000413424 0.000772768 0.000813306 0.000604988 0.000772768 0.00113309 0.00130897 0.000772768 0.000813306 0.00130897 0.00135949 1.24673e-05 -8.07886e-05 0.000149621 5.95443e-05 -8.07886e-05 -0.000279387 5.95443e-05 -0.000139095 0.000149621 5.95443e-05 0.000413424 0.000326843 5.95443e-05 -0.000139095 0.000326843 0.00012696 -0.000279387 -0.000582517 -0.000139095 -0.000443905 -0.000582517 -0.000988075 -0.000443905 -0.000852092 -0.000139095 -0.000443905 0.00012696 -0.000182759 -0.000443905 -0.000852092 -0.000182759 -0.000598831 0.000413424 0.000326843 0.000813306 0.000728997 0.000326843 0.00012696 0.000728997 0.00052561 0.000813306 0.000728997 0.00135949 0.00127544 0.000728997 0.00052561 0.00127544 0.0010655 0.00012696 -0.000182759 0.00052561 0.000207242 -0.000182759 -0.000598831 0.000207242 -0.000222059 0.00052561 0.000207242 0.0010655 0.000734075 0.000207242 -0.000222059 0.000734075 0.000285716 -0.000493145 -0.00111959 -0.000679538 -0.00117055 -0.00111959 -0.0018631 -0.00117055 -0.00175339 -0.000679538 -0.00117055 -0.000930662 -0.00145519 -0.00117055 -0.00175339 -0.00145519 -0.0020773 -0.0018631 -0.00271237 -0.00175339 -0.00241972 -0.00271237 -0.00365561 -0.00241972 -0.00316041 -0.00175339 -0.00241972 -0.0020773 -0.00278873 -0.00241972 -0.00316041 -0.00278873 -0.00358006 -0.000930662 -0.00145519 -0.00100821 -0.00151333 -0.00145519 -0.0020773 -0.00151333 -0.00211199 -0.00100821 -0.00151333 -0.000988075 -0.00149224 -0.00151333 -0.00211199 -0.00149224 -0.00208966 -0.0020773 -0.00278873 -0.00211199 -0.00279687 -0.00278873 -0.00358006 -0.00279687 -0.00355933 -0.00211199 -0.00279687 -0.00208966 -0.00277351 -0.00279687 -0.00355933 -0.00277351 -0.00353557 -0.00365561 -0.00468006 -0.00316041 -0.00396539 -0.00468006 -0.00577181 -0.00396539 -0.00482354 -0.00316041 -0.00396539 -0.00358006 -0.00444063 -0.00396539 -0.00482354 -0.00444063 -0.00535856 -0.00577181 -0.00691563 -0.00482354 -0.0057227 -0.00691563 -0.00809498 -0.0057227 -0.00664971 -0.00482354 -0.0057227 -0.00535856 -0.00632078 -0.0057227 -0.00664971 -0.00632078 -0.0073131 -0.00358006 -0.00444063 -0.00355933 -0.00438933 -0.00444063 -0.00535856 -0.00438933 -0.00527556 -0.00355933 -0.00438933 -0.00353557 -0.00436612 -0.00438933 -0.00527556 -0.00436612 -0.00525411 -0.00535856 -0.00632078 -0.00527556 -0.00620548 -0.00632078 -0.0073131 -0.00620548 -0.00716542 -0.00527556 -0.00620548 -0.00525411 -0.00618712 -0.00620548 -0.00716542 -0.00618712 -0.00715153 -0.000988075 -0.00149224 -0.000852092 -0.00135976 -0.00149224 -0.00208966 -0.00135976 -0.00196175 -0.000852092 -0.00135976 -0.000598831 -0.00111712 -0.00135976 -0.00196175 -0.00111712 -0.00173246 -0.00208966 -0.00277351 -0.00196175 -0.0026515 -0.00277351 -0.00353557 -0.0026515 -0.00342107 -0.00196175 -0.0026515 -0.00173246 -0.00243842 -0.0026515 -0.00342107 -0.00243842 -0.00322718 -0.000598831 -0.00111712 -0.000222059 -0.000757877 -0.00111712 -0.00173246 -0.000757877 -0.00139499 -0.000222059 -0.000757877 0.000285716 -0.0002749 -0.000757877 -0.00139499 -0.0002749 -0.00094245 -0.00173246 -0.00243842 -0.00139499 -0.00212698 -0.00243842 -0.00322718 -0.00212698 -0.00294608 -0.00139499 -0.00212698 -0.00094245 -0.00171049 -0.00212698 -0.00294608 -0.00171049 -0.00257128 -0.00353557 -0.00436612 -0.00342107 -0.00426099 -0.00436612 -0.00525411 -0.00426099 -0.00516044 -0.00342107 -0.00426099 -0.00322718 -0.00408941 -0.00426099 -0.00516044 -0.00408941 -0.00501439 -0.00525411 -0.00618712 -0.00516044 -0.00610708 -0.00618712 -0.00715153 -0.00610708 -0.00708723 -0.00516044 -0.00610708 -0.00501439 -0.00598976 -0.00610708 -0.00708723 -0.00598976 -0.00700167 -0.00322718 -0.00408941 -0.00294608 -0.00384303 -0.00408941 -0.00501439 -0.00384303 -0.00480707 -0.00294608 -0.00384303 -0.00257128 -0.00351559 -0.00384303 -0.00480707 -0.00351559 -0.00453257 -0.00501439 -0.00598976 -0.00480707 -0.00582574 -0.00598976 -0.00700167 -0.00582574 -0.00688491 -0.00480707 -0.00582574 -0.00453257 -0.00560953 -0.00582574 -0.00688491 -0.00560953 -0.00673204 0.000401278 0.000739134 0.0010995 0.00134166 0.000739134 0.00113309 0.00134166 0.00182165 0.0010995 0.00134166 0.00197946 0.00209785 0.00134166 0.00182165 0.00209785 0.0026822 0.00113309 0.00130897 0.00182165 0.00200299 0.00130897 0.00135949 0.00200299 0.00206296 0.00182165 0.00200299 0.0026822 0.00286713 0.00200299 0.00206296 0.00286713 0.00293637 0.00197946 0.00209785 0.00305344 0.00301922 0.00209785 0.0026822 0.00301922 0.00372864 0.00305344 0.00301922 0.00433749 0.00412016 0.00301922 0.00372864 0.00412016 0.00497783 0.0026822 0.00286713 0.00372864 0.00391585 0.00286713 0.00293637 0.00391585 0.0039946 0.00372864 0.00391585 0.00497783 0.00516642 0.00391585 0.0039946 0.00516642 0.00525529 0.00135949 0.00127544 0.00206296 0.0019769 0.00127544 0.0010655 0.0019769 0.001757 0.00206296 0.0019769 0.00293637 0.00284599 0.0019769 0.001757 0.00284599 0.00261254 0.0010655 0.000734075 0.001757 0.00140777 0.000734075 0.000285716 0.00140777 0.000934277 0.001757 0.00140777 0.00261254 0.00224057 0.00140777 0.000934277 0.00224057 0.00173572 0.00293637 0.00284599 0.0039946 0.00389766 0.00284599 0.00261254 0.00389766 0.003647 0.0039946 0.00389766 0.00525529 0.00514961 0.00389766 0.003647 0.00514961 0.004878 0.00261254 0.00224057 0.003647 0.00324723 0.00224057 0.00173572 0.00324723 0.00270468 0.003647 0.00324723 0.004878 0.00444525 0.00324723 0.00270468 0.00444525 0.00385859 0.00433749 0.00412016 0.00585146 0.00541824 0.00412016 0.00497783 0.00541824 0.00645014 0.00585146 0.00541824 0.00761924 0.00693465 0.00541824 0.00645014 0.00693465 0.00817011 0.00497783 0.00516642 0.00645014 0.00663959 0.00516642 0.00525529 0.00663959 0.00673947 0.00645014 0.00663959 0.00817011 0.00836011 0.00663959 0.00673947 0.00836011 0.00847211 0.00761924 0.00693465 0.00966933 0.00869494 0.00693465 0.00817011 0.00869494 0.0101673 0.00966933 0.00869494 0.0120357 0.0107299 0.00869494 0.0101673 0.0107299 0.0124776 0.00817011 0.00836011 0.0101673 0.0103577 0.00836011 0.00847211 0.0103577 0.010483 0.0101673 0.0103577 0.0124776 0.0126685 0.0103577 0.010483 0.0126685 0.0128078 0.00525529 0.00514961 0.00673947 0.00662283 0.00514961 0.004878 0.00662283 0.00632633 0.00673947 0.00662283 0.00847211 0.00834209 0.00662283 0.00632633 0.00834209 0.00801642 0.004878 0.00444525 0.00632633 0.0058552 0.00444525 0.00385859 0.0058552 0.00521787 0.00632633 0.0058552 0.00801642 0.00750114 0.0058552 0.00521787 0.00750114 0.00680624 0.00847211 0.00834209 0.010483 0.0103367 0.00834209 0.00801642 0.0103367 0.00997688 0.010483 0.0103367 0.0128078 0.0126412 0.0103367 0.00997688 0.0126412 0.012241 0.00801642 0.00750114 0.00997688 0.00941097 0.00750114 0.00680624 0.00941097 0.00865099 0.00997688 0.00941097 0.012241 0.0116168 0.00941097 0.00865099 0.0116168 0.0107832 0.000285716 -0.0002749 0.000934277 0.00034144 -0.0002749 -0.00094245 0.00034144 -0.000365286 0.000934277 0.00034144 0.00173572 0.00110314 0.00034144 -0.000365286 0.00110314 0.000348414 -0.00094245 -0.00171049 -0.000365286 -0.00117945 -0.00171049 -0.00257128 -0.00117945 -0.00209335 -0.000365286 -0.00117945 0.000348414 -0.00052199 -0.00117945 -0.00209335 -0.00052199 -0.00150042 0.00173572 0.00110314 0.00270468 0.0020248 0.00110314 0.000348414 0.0020248 0.0012133 0.00270468 0.0020248 0.00385859 0.00312385 0.0020248 0.0012133 0.00312385 0.00224683 0.000348414 -0.00052199 0.0012133 0.000276625 -0.00052199 -0.00150042 0.000276625 -0.000777696 0.0012133 0.000276625 0.00224683 0.00123393 0.000276625 -0.000777696 0.00123393 9.25233e-05 -0.00257128 -0.00351559 -0.00209335 -0.00309774 -0.00351559 -0.00453257 -0.00309774 -0.00418167 -0.00209335 -0.00309774 -0.00150042 -0.00257767 -0.00309774 -0.00418167 -0.00257767 -0.0037427 -0.00453257 -0.00560953 -0.00418167 -0.00533226 -0.00560953 -0.00673204 -0.00533226 -0.00653467 -0.00418167 -0.00533226 -0.0037427 -0.00498252 -0.00533226 -0.00653467 -0.00498252 -0.00628192 -0.00150042 -0.00257767 -0.000777696 -0.00194054 -0.00257767 -0.0037427 -0.00194054 -0.00320092 -0.000777696 -0.00194054 9.25233e-05 -0.00116847 -0.00194054 -0.00320092 -0.00116847 -0.00253832 -0.0037427 -0.00498252 -0.00320092 -0.0045458 -0.00498252 -0.00628192 -0.0045458 -0.00595971 -0.00320092 -0.0045458 -0.00253832 -0.00400414 -0.0045458 -0.00595971 -0.00400414 -0.00555036 0.00385859 0.00312385 0.00521787 0.00442061 0.00312385 0.00224683 0.00442061 0.0034694 0.00521787 0.00442061 0.00680624 0.00593863 0.00442061 0.0034694 0.00593863 0.00490453 0.00224683 0.00123393 0.0034694 0.00237053 0.00123393 9.25233e-05 0.00237053 0.00113113 0.0034694 0.00237053 0.00490453 0.00371011 0.00237053 0.00113113 0.00371011 0.00236215 0.00680624 0.00593863 0.00865099 0.00770479 0.00593863 0.00490453 0.00770479 0.00657893 0.00865099 0.00770479 0.0107832 0.00974937 0.00770479 0.00657893 0.00974937 0.00852246 0.00490453 0.00371011 0.00657893 0.00527948 0.00371011 0.00236215 0.00527948 0.00381283 0.00657893 0.00527948 0.00852246 0.00710849 0.00527948 0.00381283 0.00710849 0.00551342 9.25233e-05 -0.00116847 0.00113113 -0.000240264 -0.00116847 -0.00253832 -0.000240264 -0.00173337 0.00113113 -0.000240264 0.00236215 0.00086864 -0.000240264 -0.00173337 0.00086864 -0.000760845 -0.00253832 -0.00400414 -0.00173337 -0.00333571 -0.00400414 -0.00555036 -0.00333571 -0.00503201 -0.00173337 -0.00333571 -0.000760845 -0.00251461 -0.00333571 -0.00503201 -0.00251461 -0.00437817 0.00236215 0.00086864 0.00381283 0.00218623 0.00086864 -0.000760845 0.00218623 0.000408255 0.00381283 0.00218623 0.00551342 0.00374364 0.00218623 0.000408255 0.00374364 0.00180645 -0.000760845 -0.00251461 0.000408255 -0.00151062 -0.00251461 -0.00437817 -0.00151062 -0.00355732 0.000408255 -0.00151062 0.00180645 -0.000289353 -0.00151062 -0.00355732 -0.000289353 -0.00253282 -0.00809498 -0.00929205 -0.00664971 -0.00759041 -0.00929205 -0.0104879 -0.00759041 -0.00852971 -0.00664971 -0.00759041 -0.0073131 -0.00832027 -0.00759041 -0.00852971 -0.00832027 -0.009326 -0.0104879 -0.0116627 -0.00852971 -0.00945183 -0.0116627 -0.0127958 -0.00945183 -0.0103405 -0.00852971 -0.00945183 -0.009326 -0.0103133 -0.00945183 -0.0103405 -0.0103133 -0.0112645 -0.0073131 -0.00832027 -0.00716542 -0.00814054 -0.00832027 -0.009326 -0.00814054 -0.009115 -0.00716542 -0.00814054 -0.00715153 -0.00813245 -0.00814054 -0.009115 -0.00813245 -0.009114 -0.009326 -0.0103133 -0.009115 -0.0100722 -0.0103133 -0.0112645 -0.0100722 -0.010995 -0.009115 -0.0100722 -0.009114 -0.0100793 -0.0100722 -0.010995 -0.0100793 -0.0110111 -0.0127958 -0.0138664 -0.0103405 -0.0111791 -0.0138664 -0.0148533 -0.0111791 -0.0119513 -0.0103405 -0.0111791 -0.0112645 -0.012162 -0.0111791 -0.0119513 -0.012162 -0.0129882 -0.0148533 -0.0157357 -0.0119513 -0.012641 -0.0157357 -0.0164932 -0.012641 -0.0132328 -0.0119513 -0.012641 -0.0129882 -0.0137261 -0.012641 -0.0132328 -0.0137261 -0.0143599 -0.0112645 -0.012162 -0.010995 -0.0118662 -0.012162 -0.0129882 -0.0118662 -0.0126685 -0.010995 -0.0118662 -0.0110111 -0.0118917 -0.0118662 -0.0126685 -0.0118917 -0.0127035 -0.0129882 -0.0137261 -0.0126685 -0.0133856 -0.0137261 -0.0143599 -0.0133856 -0.0140024 -0.0126685 -0.0133856 -0.0127035 -0.0134299 -0.0133856 -0.0140024 -0.0134299 -0.0140556 -0.00715153 -0.00813245 -0.00708723 -0.00808587 -0.00813245 -0.009114 -0.00808587 -0.00908688 -0.00708723 -0.00808587 -0.00700167 -0.00803476 -0.00808587 -0.00908688 -0.00803476 -0.00907245 -0.009114 -0.0100793 -0.00908688 -0.010073 -0.0100793 -0.0110111 -0.010073 -0.0110265 -0.00908688 -0.010073 -0.00907245 -0.0100969 -0.010073 -0.0110265 -0.0100969 -0.0110894 -0.00700167 -0.00803476 -0.00688491 -0.00796878 -0.00803476 -0.00907245 -0.00796878 -0.00906009 -0.00688491 -0.00796878 -0.00673204 -0.00788374 -0.00796878 -0.00906009 -0.00788374 -0.00904653 -0.00907245 -0.0100969 -0.00906009 -0.0101401 -0.0100969 -0.0110894 -0.0101401 -0.011189 -0.00906009 -0.0101401 -0.00904653 -0.0102005 -0.0101401 -0.011189 -0.0102005 -0.0113244 -0.0110111 -0.0118917 -0.0110265 -0.011929 -0.0118917 -0.0127035 -0.011929 -0.0127622 -0.0110265 -0.011929 -0.0110894 -0.0120306 -0.011929 -0.0127622 -0.0120306 -0.0129012 -0.0127035 -0.0134299 -0.0127622 -0.0135088 -0.0134299 -0.0140556 -0.0135088 -0.0141525 -0.0127622 -0.0135088 -0.0129012 -0.0136825 -0.0135088 -0.0141525 -0.0136825 -0.0143568 -0.0110894 -0.0120306 -0.011189 -0.012186 -0.0120306 -0.0129012 -0.012186 -0.0131102 -0.011189 -0.012186 -0.0113244 -0.0123957 -0.012186 -0.0131102 -0.0123957 -0.0133912 -0.0129012 -0.0136825 -0.0131102 -0.0139409 -0.0136825 -0.0143568 -0.0139409 -0.0146589 -0.0131102 -0.0139409 -0.0133912 -0.014288 -0.0139409 -0.0146589 -0.014288 -0.0150643 -0.0164932 -0.0171062 -0.0132328 -0.0137129 -0.0171062 -0.0175567 -0.0137129 -0.0140706 -0.0132328 -0.0137129 -0.0143599 -0.014876 -0.0137129 -0.0140706 -0.014876 -0.0152642 -0.0175567 -0.0178322 -0.0140706 -0.014296 -0.0178322 -0.0179178 -0.014296 -0.0144039 -0.0140706 -0.014296 -0.0152642 -0.0155169 -0.014296 -0.0144039 -0.0155169 -0.0156473 -0.0143599 -0.014876 -0.0140024 -0.0145061 -0.014876 -0.0152642 -0.0145061 -0.0148875 -0.0140024 -0.0145061 -0.0140556 -0.0145673 -0.0145061 -0.0148875 -0.0145673 -0.0149555 -0.0152642 -0.0155169 -0.0148875 -0.0151393 -0.0155169 -0.0156473 -0.0151393 -0.0152745 -0.0148875 -0.0151393 -0.0149555 -0.0152122 -0.0151393 -0.0152745 -0.0152122 -0.0153485 -0.0179178 -0.0178625 -0.0144039 -0.014329 -0.0178625 -0.0176437 -0.014329 -0.0145062 -0.0144039 -0.014329 -0.0156473 -0.0156014 -0.014329 -0.0145062 -0.0156014 -0.0157705 -0.0176437 -0.0165558 -0.0145062 -0.0129594 -0.0165558 -0.0180342 -0.0129594 -0.0163493 -0.0145062 -0.0129594 -0.0157705 -0.0142374 -0.0129594 -0.0163493 -0.0142374 -0.0169213 -0.0156473 -0.0156014 -0.0152745 -0.0152323 -0.0156014 -0.0157705 -0.0152323 -0.0154082 -0.0152745 -0.0152323 -0.0153485 -0.015301 -0.0152323 -0.0154082 -0.015301 -0.0154533 -0.0157705 -0.0142374 -0.0154082 -0.0138349 -0.0142374 -0.0169213 -0.0138349 -0.016688 -0.0154082 -0.0138349 -0.0154533 -0.0138494 -0.0138349 -0.016688 -0.0138494 -0.0165394 -0.0140556 -0.0145673 -0.0141525 -0.0146794 -0.0145673 -0.0149555 -0.0146794 -0.0150788 -0.0141525 -0.0146794 -0.0143568 -0.0149088 -0.0146794 -0.0150788 -0.0149088 -0.0153265 -0.0149555 -0.0152122 -0.0150788 -0.0153416 -0.0152122 -0.0153485 -0.0153416 -0.015477 -0.0150788 -0.0153416 -0.0153265 -0.0155992 -0.0153416 -0.015477 -0.0155992 -0.0157351 -0.0143568 -0.0149088 -0.0146589 -0.0152467 -0.0149088 -0.0153265 -0.0152467 -0.0156907 -0.0146589 -0.0152467 -0.0150643 -0.0157003 -0.0152467 -0.0156907 -0.0157003 -0.0161801 -0.0153265 -0.0155992 -0.0156907 -0.0159786 -0.0155992 -0.0157351 -0.0159786 -0.0161178 -0.0156907 -0.0159786 -0.0161801 -0.0164898 -0.0159786 -0.0161178 -0.0164898 -0.0166363 -0.0153485 -0.015301 -0.015477 -0.0154189 -0.015301 -0.0154533 -0.0154189 -0.0155498 -0.015477 -0.0154189 -0.0157351 -0.0156657 -0.0154189 -0.0155498 -0.0156657 -0.0157777 -0.0154533 -0.0138494 -0.0155498 -0.0139016 -0.0138494 -0.0165394 -0.0139016 -0.0165691 -0.0155498 -0.0139016 -0.0157777 -0.0140807 -0.0139016 -0.0165691 -0.0140807 -0.0167428 -0.0157351 -0.0156657 -0.0161178 -0.016038 -0.0156657 -0.0157777 -0.016038 -0.0161347 -0.0161178 -0.016038 -0.0166363 -0.0165473 -0.016038 -0.0161347 -0.0165473 -0.0166312 -0.0157777 -0.0140807 -0.0161347 -0.0143782 -0.0140807 -0.0167428 -0.0143782 -0.0170685 -0.0161347 -0.0143782 -0.0166312 -0.0148019 -0.0143782 -0.0170685 -0.0148019 -0.0175451 -0.00673204 -0.00788374 -0.00653467 -0.00777194 -0.00788374 -0.00904653 -0.00777194 -0.00902501 -0.00653467 -0.00777194 -0.00628192 -0.00762333 -0.00777194 -0.00902501 -0.00762333 -0.00898659 -0.00904653 -0.0102005 -0.00902501 -0.0102726 -0.0102005 -0.0113244 -0.0102726 -0.0114917 -0.00902501 -0.0102726 -0.00898659 -0.010349 -0.0102726 -0.0114917 -0.010349 -0.0116854 -0.00628192 -0.00762333 -0.00595971 -0.00742457 -0.00762333 -0.00898659 -0.00742457 -0.00891918 -0.00595971 -0.00742457 -0.00555036 -0.00715857 -0.00742457 -0.00891918 -0.00715857 -0.00880677 -0.00898659 -0.010349 -0.00891918 -0.0104193 -0.010349 -0.0116854 -0.0104193 -0.0118974 -0.00891918 -0.0104193 -0.00880677 -0.0104693 -0.0104193 -0.0118974 -0.0104693 -0.0121161 -0.0113244 -0.0123957 -0.0114917 -0.0126575 -0.0123957 -0.0133912 -0.0126575 -0.0137442 -0.0114917 -0.0126575 -0.0116854 -0.0129684 -0.0126575 -0.0137442 -0.0129684 -0.0141689 -0.0133912 -0.014288 -0.0137442 -0.0147259 -0.014288 -0.0150643 -0.0147259 -0.0155775 -0.0137442 -0.0147259 -0.0141689 -0.0152571 -0.0147259 -0.0155775 -0.0152571 -0.0162039 -0.0116854 -0.0129684 -0.0118974 -0.0133231 -0.0129684 -0.0141689 -0.0133231 -0.0146633 -0.0118974 -0.0133231 -0.0121161 -0.0137134 -0.0133231 -0.0146633 -0.0137134 -0.0152233 -0.0141689 -0.0152571 -0.0146633 -0.0158835 -0.0152571 -0.0162039 -0.0158835 -0.0169493 -0.0146633 -0.0158835 -0.0152233 -0.0166055 -0.0158835 -0.0169493 -0.0166055 -0.0178191 -0.00555036 -0.00715857 -0.00503201 -0.00680384 -0.00715857 -0.00880677 -0.00680384 -0.00862878 -0.00503201 -0.00680384 -0.00437817 -0.00633364 -0.00680384 -0.00862878 -0.00633364 -0.00835876 -0.00880677 -0.0104693 -0.00862878 -0.0104799 -0.0104693 -0.0121161 -0.0104799 -0.012325 -0.00862878 -0.0104799 -0.00835876 -0.010426 -0.0104799 -0.012325 -0.010426 -0.0125012 -0.00437817 -0.00633364 -0.00355732 -0.0057153 -0.00633364 -0.00835876 -0.0057153 -0.0079634 -0.00355732 -0.0057153 -0.00253282 -0.00490979 -0.0057153 -0.0079634 -0.00490979 -0.0074015 -0.00835876 -0.010426 -0.0079634 -0.0102744 -0.010426 -0.0125012 -0.0102744 -0.0126133 -0.0079634 -0.0102744 -0.0074015 -0.0099826 -0.0102744 -0.0126133 -0.0099826 -0.0126187 -0.0121161 -0.0137134 -0.012325 -0.0141263 -0.0137134 -0.0152233 -0.0141263 -0.0158409 -0.012325 -0.0141263 -0.0125012 -0.014543 -0.0141263 -0.0158409 -0.014543 -0.0165026 -0.0152233 -0.0166055 -0.0158409 -0.017