# vtk DataFile Version 3.0
#This file was generated by the deal.II library on 2026/1/5 at 14:19:31
ASCII
DATASET UNSTRUCTURED_GRID

POINTS 4096 double
0 0 0
0.03125 0 0
0 0.03125 0
0.03125 0.03125 0
0.03125 0 0
0.0625 0 0
0.03125 0.03125 0
0.0625 0.03125 0
0 0.03125 0
0.03125 0.03125 0
0 0.0625 0
0.03125 0.0625 0
0.03125 0.03125 0
0.0625 0.03125 0
0.03125 0.0625 0
0.0625 0.0625 0
0.0625 0 0
0.09375 0 0
0.0625 0.03125 0
0.09375 0.03125 0
0.09375 0 0
0.125 0 0
0.09375 0.03125 0
0.125 0.03125 0
0.0625 0.03125 0
0.09375 0.03125 0
0.0625 0.0625 0
0.09375 0.0625 0
0.09375 0.03125 0
0.125 0.03125 0
0.09375 0.0625 0
0.125 0.0625 0
0 0.0625 0
0.03125 0.0625 0
0 0.09375 0
0.03125 0.09375 0
0.03125 0.0625 0
0.0625 0.0625 0
0.03125 0.09375 0
0.0625 0.09375 0
0 0.09375 0
0.03125 0.09375 0
0 0.125 0
0.03125 0.125 0
0.03125 0.09375 0
0.0625 0.09375 0
0.03125 0.125 0
0.0625 0.125 0
0.0625 0.0625 0
0.09375 0.0625 0
0.0625 0.09375 0
0.09375 0.09375 0
0.09375 0.0625 0
0.125 0.0625 0
0.09375 0.09375 0
0.125 0.09375 0
0.0625 0.09375 0
0.09375 0.09375 0
0.0625 0.125 0
0.09375 0.125 0
0.09375 0.09375 0
0.125 0.09375 0
0.09375 0.125 0
0.125 0.125 0
0.125 0 0
0.15625 0 0
0.125 0.03125 0
0.15625 0.03125 0
0.15625 0 0
0.1875 0 0
0.15625 0.03125 0
0.1875 0.03125 0
0.125 0.03125 0
0.15625 0.03125 0
0.125 0.0625 0
0.15625 0.0625 0
0.15625 0.03125 0
0.1875 0.03125 0
0.15625 0.0625 0
0.1875 0.0625 0
0.1875 0 0
0.21875 0 0
0.1875 0.03125 0
0.21875 0.03125 0
0.21875 0 0
0.25 0 0
0.21875 0.03125 0
0.25 0.03125 0
0.1875 0.03125 0
0.21875 0.03125 0
0.1875 0.0625 0
0.21875 0.0625 0
0.21875 0.03125 0
0.25 0.03125 0
0.21875 0.0625 0
0.25 0.0625 0
0.125 0.0625 0
0.15625 0.0625 0
0.125 0.09375 0
0.15625 0.09375 0
0.15625 0.0625 0
0.1875 0.0625 0
0.15625 0.09375 0
0.1875 0.09375 0
0.125 0.09375 0
0.15625 0.09375 0
0.125 0.125 0
0.15625 0.125 0
0.15625 0.09375 0
0.1875 0.09375 0
0.15625 0.125 0
0.1875 0.125 0
0.1875 0.0625 0
0.21875 0.0625 0
0.1875 0.09375 0
0.21875 0.09375 0
0.21875 0.0625 0
0.25 0.0625 0
0.21875 0.09375 0
0.25 0.09375 0
0.1875 0.09375 0
0.21875 0.09375 0
0.1875 0.125 0
0.21875 0.125 0
0.21875 0.09375 0
0.25 0.09375 0
0.21875 0.125 0
0.25 0.125 0
0 0.125 0
0.03125 0.125 0
0 0.15625 0
0.03125 0.15625 0
0.03125 0.125 0
0.0625 0.125 0
0.03125 0.15625 0
0.0625 0.15625 0
0 0.15625 0
0.03125 0.15625 0
0 0.1875 0
0.03125 0.1875 0
0.03125 0.15625 0
0.0625 0.15625 0
0.03125 0.1875 0
0.0625 0.1875 0
0.0625 0.125 0
0.09375 0.125 0
0.0625 0.15625 0
0.09375 0.15625 0
0.09375 0.125 0
0.125 0.125 0
0.09375 0.15625 0
0.125 0.15625 0
0.0625 0.15625 0
0.09375 0.15625 0
0.0625 0.1875 0
0.09375 0.1875 0
0.09375 0.15625 0
0.125 0.15625 0
0.09375 0.1875 0
0.125 0.1875 0
0 0.1875 0
0.03125 0.1875 0
0 0.21875 0
0.03125 0.21875 0
0.03125 0.1875 0
0.0625 0.1875 0
0.03125 0.21875 0
0.0625 0.21875 0
0 0.21875 0
0.03125 0.21875 0
0 0.25 0
0.03125 0.25 0
0.03125 0.21875 0
0.0625 0.21875 0
0.03125 0.25 0
0.0625 0.25 0
0.0625 0.1875 0
0.09375 0.1875 0
0.0625 0.21875 0
0.09375 0.21875 0
0.09375 0.1875 0
0.125 0.1875 0
0.09375 0.21875 0
0.125 0.21875 0
0.0625 0.21875 0
0.09375 0.21875 0
0.0625 0.25 0
0.09375 0.25 0
0.09375 0.21875 0
0.125 0.21875 0
0.09375 0.25 0
0.125 0.25 0
0.125 0.125 0
0.15625 0.125 0
0.125 0.15625 0
0.15625 0.15625 0
0.15625 0.125 0
0.1875 0.125 0
0.15625 0.15625 0
0.1875 0.15625 0
0.125 0.15625 0
0.15625 0.15625 0
0.125 0.1875 0
0.15625 0.1875 0
0.15625 0.15625 0
0.1875 0.15625 0
0.15625 0.1875 0
0.1875 0.1875 0
0.1875 0.125 0
0.21875 0.125 0
0.1875 0.15625 0
0.21875 0.15625 0
0.21875 0.125 0
0.25 0.125 0
0.21875 0.15625 0
0.25 0.15625 0
0.1875 0.15625 0
0.21875 0.15625 0
0.1875 0.1875 0
0.21875 0.1875 0
0.21875 0.15625 0
0.25 0.15625 0
0.21875 0.1875 0
0.25 0.1875 0
0.125 0.1875 0
0.15625 0.1875 0
0.125 0.21875 0
0.15625 0.21875 0
0.15625 0.1875 0
0.1875 0.1875 0
0.15625 0.21875 0
0.1875 0.21875 0
0.125 0.21875 0
0.15625 0.21875 0
0.125 0.25 0
0.15625 0.25 0
0.15625 0.21875 0
0.1875 0.21875 0
0.15625 0.25 0
0.1875 0.25 0
0.1875 0.1875 0
0.21875 0.1875 0
0.1875 0.21875 0
0.21875 0.21875 0
0.21875 0.1875 0
0.25 0.1875 0
0.21875 0.21875 0
0.25 0.21875 0
0.1875 0.21875 0
0.21875 0.21875 0
0.1875 0.25 0
0.21875 0.25 0
0.21875 0.21875 0
0.25 0.21875 0
0.21875 0.25 0
0.25 0.25 0
0.25 0 0
0.28125 0 0
0.25 0.03125 0
0.28125 0.03125 0
0.28125 0 0
0.3125 0 0
0.28125 0.03125 0
0.3125 0.03125 0
0.25 0.03125 0
0.28125 0.03125 0
0.25 0.0625 0
0.28125 0.0625 0
0.28125 0.03125 0
0.3125 0.03125 0
0.28125 0.0625 0
0.3125 0.0625 0
0.3125 0 0
0.34375 0 0
0.3125 0.03125 0
0.34375 0.03125 0
0.34375 0 0
0.375 0 0
0.34375 0.03125 0
0.375 0.03125 0
0.3125 0.03125 0
0.34375 0.03125 0
0.3125 0.0625 0
0.34375 0.0625 0
0.34375 0.03125 0
0.375 0.03125 0
0.34375 0.0625 0
0.375 0.0625 0
0.25 0.0625 0
0.28125 0.0625 0
0.25 0.09375 0
0.28125 0.09375 0
0.28125 0.0625 0
0.3125 0.0625 0
0.28125 0.09375 0
0.3125 0.09375 0
0.25 0.09375 0
0.28125 0.09375 0
0.25 0.125 0
0.28125 0.125 0
0.28125 0.09375 0
0.3125 0.09375 0
0.28125 0.125 0
0.3125 0.125 0
0.3125 0.0625 0
0.34375 0.0625 0
0.3125 0.09375 0
0.34375 0.09375 0
0.34375 0.0625 0
0.375 0.0625 0
0.34375 0.09375 0
0.375 0.09375 0
0.3125 0.09375 0
0.34375 0.09375 0
0.3125 0.125 0
0.34375 0.125 0
0.34375 0.09375 0
0.375 0.09375 0
0.34375 0.125 0
0.375 0.125 0
0.375 0 0
0.40625 0 0
0.375 0.03125 0
0.40625 0.03125 0
0.40625 0 0
0.4375 0 0
0.40625 0.03125 0
0.4375 0.03125 0
0.375 0.03125 0
0.40625 0.03125 0
0.375 0.0625 0
0.40625 0.0625 0
0.40625 0.03125 0
0.4375 0.03125 0
0.40625 0.0625 0
0.4375 0.0625 0
0.4375 0 0
0.46875 0 0
0.4375 0.03125 0
0.46875 0.03125 0
0.46875 0 0
0.5 0 0
0.46875 0.03125 0
0.5 0.03125 0
0.4375 0.03125 0
0.46875 0.03125 0
0.4375 0.0625 0
0.46875 0.0625 0
0.46875 0.03125 0
0.5 0.03125 0
0.46875 0.0625 0
0.5 0.0625 0
0.375 0.0625 0
0.40625 0.0625 0
0.375 0.09375 0
0.40625 0.09375 0
0.40625 0.0625 0
0.4375 0.0625 0
0.40625 0.09375 0
0.4375 0.09375 0
0.375 0.09375 0
0.40625 0.09375 0
0.375 0.125 0
0.40625 0.125 0
0.40625 0.09375 0
0.4375 0.09375 0
0.40625 0.125 0
0.4375 0.125 0
0.4375 0.0625 0
0.46875 0.0625 0
0.4375 0.09375 0
0.46875 0.09375 0
0.46875 0.0625 0
0.5 0.0625 0
0.46875 0.09375 0
0.5 0.09375 0
0.4375 0.09375 0
0.46875 0.09375 0
0.4375 0.125 0
0.46875 0.125 0
0.46875 0.09375 0
0.5 0.09375 0
0.46875 0.125 0
0.5 0.125 0
0.25 0.125 0
0.28125 0.125 0
0.25 0.15625 0
0.28125 0.15625 0
0.28125 0.125 0
0.3125 0.125 0
0.28125 0.15625 0
0.3125 0.15625 0
0.25 0.15625 0
0.28125 0.15625 0
0.25 0.1875 0
0.28125 0.1875 0
0.28125 0.15625 0
0.3125 0.15625 0
0.28125 0.1875 0
0.3125 0.1875 0
0.3125 0.125 0
0.34375 0.125 0
0.3125 0.15625 0
0.34375 0.15625 0
0.34375 0.125 0
0.375 0.125 0
0.34375 0.15625 0
0.375 0.15625 0
0.3125 0.15625 0
0.34375 0.15625 0
0.3125 0.1875 0
0.34375 0.1875 0
0.34375 0.15625 0
0.375 0.15625 0
0.34375 0.1875 0
0.375 0.1875 0
0.25 0.1875 0
0.28125 0.1875 0
0.25 0.21875 0
0.28125 0.21875 0
0.28125 0.1875 0
0.3125 0.1875 0
0.28125 0.21875 0
0.3125 0.21875 0
0.25 0.21875 0
0.28125 0.21875 0
0.25 0.25 0
0.28125 0.25 0
0.28125 0.21875 0
0.3125 0.21875 0
0.28125 0.25 0
0.3125 0.25 0
0.3125 0.1875 0
0.34375 0.1875 0
0.3125 0.21875 0
0.34375 0.21875 0
0.34375 0.1875 0
0.375 0.1875 0
0.34375 0.21875 0
0.375 0.21875 0
0.3125 0.21875 0
0.34375 0.21875 0
0.3125 0.25 0
0.34375 0.25 0
0.34375 0.21875 0
0.375 0.21875 0
0.34375 0.25 0
0.375 0.25 0
0.375 0.125 0
0.40625 0.125 0
0.375 0.15625 0
0.40625 0.15625 0
0.40625 0.125 0
0.4375 0.125 0
0.40625 0.15625 0
0.4375 0.15625 0
0.375 0.15625 0
0.40625 0.15625 0
0.375 0.1875 0
0.40625 0.1875 0
0.40625 0.15625 0
0.4375 0.15625 0
0.40625 0.1875 0
0.4375 0.1875 0
0.4375 0.125 0
0.46875 0.125 0
0.4375 0.15625 0
0.46875 0.15625 0
0.46875 0.125 0
0.5 0.125 0
0.46875 0.15625 0
0.5 0.15625 0
0.4375 0.15625 0
0.46875 0.15625 0
0.4375 0.1875 0
0.46875 0.1875 0
0.46875 0.15625 0
0.5 0.15625 0
0.46875 0.1875 0
0.5 0.1875 0
0.375 0.1875 0
0.40625 0.1875 0
0.375 0.21875 0
0.40625 0.21875 0
0.40625 0.1875 0
0.4375 0.1875 0
0.40625 0.21875 0
0.4375 0.21875 0
0.375 0.21875 0
0.40625 0.21875 0
0.375 0.25 0
0.40625 0.25 0
0.40625 0.21875 0
0.4375 0.21875 0
0.40625 0.25 0
0.4375 0.25 0
0.4375 0.1875 0
0.46875 0.1875 0
0.4375 0.21875 0
0.46875 0.21875 0
0.46875 0.1875 0
0.5 0.1875 0
0.46875 0.21875 0
0.5 0.21875 0
0.4375 0.21875 0
0.46875 0.21875 0
0.4375 0.25 0
0.46875 0.25 0
0.46875 0.21875 0
0.5 0.21875 0
0.46875 0.25 0
0.5 0.25 0
0 0.25 0
0.03125 0.25 0
0 0.28125 0
0.03125 0.28125 0
0.03125 0.25 0
0.0625 0.25 0
0.03125 0.28125 0
0.0625 0.28125 0
0 0.28125 0
0.03125 0.28125 0
0 0.3125 0
0.03125 0.3125 0
0.03125 0.28125 0
0.0625 0.28125 0
0.03125 0.3125 0
0.0625 0.3125 0
0.0625 0.25 0
0.09375 0.25 0
0.0625 0.28125 0
0.09375 0.28125 0
0.09375 0.25 0
0.125 0.25 0
0.09375 0.28125 0
0.125 0.28125 0
0.0625 0.28125 0
0.09375 0.28125 0
0.0625 0.3125 0
0.09375 0.3125 0
0.09375 0.28125 0
0.125 0.28125 0
0.09375 0.3125 0
0.125 0.3125 0
0 0.3125 0
0.03125 0.3125 0
0 0.34375 0
0.03125 0.34375 0
0.03125 0.3125 0
0.0625 0.3125 0
0.03125 0.34375 0
0.0625 0.34375 0
0 0.34375 0
0.03125 0.34375 0
0 0.375 0
0.03125 0.375 0
0.03125 0.34375 0
0.0625 0.34375 0
0.03125 0.375 0
0.0625 0.375 0
0.0625 0.3125 0
0.09375 0.3125 0
0.0625 0.34375 0
0.09375 0.34375 0
0.09375 0.3125 0
0.125 0.3125 0
0.09375 0.34375 0
0.125 0.34375 0
0.0625 0.34375 0
0.09375 0.34375 0
0.0625 0.375 0
0.09375 0.375 0
0.09375 0.34375 0
0.125 0.34375 0
0.09375 0.375 0
0.125 0.375 0
0.125 0.25 0
0.15625 0.25 0
0.125 0.28125 0
0.15625 0.28125 0
0.15625 0.25 0
0.1875 0.25 0
0.15625 0.28125 0
0.1875 0.28125 0
0.125 0.28125 0
0.15625 0.28125 0
0.125 0.3125 0
0.15625 0.3125 0
0.15625 0.28125 0
0.1875 0.28125 0
0.15625 0.3125 0
0.1875 0.3125 0
0.1875 0.25 0
0.21875 0.25 0
0.1875 0.28125 0
0.21875 0.28125 0
0.21875 0.25 0
0.25 0.25 0
0.21875 0.28125 0
0.25 0.28125 0
0.1875 0.28125 0
0.21875 0.28125 0
0.1875 0.3125 0
0.21875 0.3125 0
0.21875 0.28125 0
0.25 0.28125 0
0.21875 0.3125 0
0.25 0.3125 0
0.125 0.3125 0
0.15625 0.3125 0
0.125 0.34375 0
0.15625 0.34375 0
0.15625 0.3125 0
0.1875 0.3125 0
0.15625 0.34375 0
0.1875 0.34375 0
0.125 0.34375 0
[...]
POINT_DATA 4096
SCALARS p double 1
LOOKUP_TABLE default
-5.99124e-08 0.000114223 -0.000114647 3.34521e-08 0.000114223 0.00034527 3.34521e-08 0.000113096 -0.000114647 3.34521e-08 -0.000348401 -0.00011254 3.34521e-08 0.000113096 -0.00011254 2.83258e-06 0.00034527 0.000495761 0.000113096 0.000178451 0.000495761 0.000488037 0.000178451 0.000139648 0.000113096 0.000178451 2.83258e-06 5.56353e-05 0.000178451 0.000139648 5.56353e-05 -6.22706e-06 -0.000348401 -0.00011254 -0.000507412 -0.000177722 -0.00011254 2.83258e-06 -0.000177722 -4.26052e-05 -0.000507412 -0.000177722 -0.000513854 -0.000137274 -0.000177722 -4.26052e-05 -0.000137274 3.18806e-05 2.83258e-06 5.56353e-05 -4.26052e-05 1.40808e-05 5.56353e-05 -6.22706e-06 1.40808e-05 -5.1868e-05 -4.26052e-05 1.40808e-05 3.18806e-05 0.000101284 1.40808e-05 -5.1868e-05 0.000101284 3.84662e-05 0.000488037 0.000303411 0.000139648 -2.10359e-05 0.000303411 -5.27373e-05 -2.10359e-05 -0.000307637 0.000139648 -2.10359e-05 -6.22706e-06 -0.000191844 -2.10359e-05 -0.000307637 -0.000191844 -0.00050704 -5.27373e-05 -0.000568881 -0.000307637 -0.000716524 -0.000568881 -0.00123275 -0.000716524 -0.00124109 -0.000307637 -0.000716524 -0.00050704 -0.00095024 -0.000716524 -0.00124109 -0.00095024 -0.0015164 -6.22706e-06 -0.000191844 -5.1868e-05 -0.000238146 -0.000191844 -0.00050704 -0.000238146 -0.000548276 -5.1868e-05 -0.000238146 3.84662e-05 -0.000149375 -0.000238146 -0.000548276 -0.000149375 -0.000462705 -0.00050704 -0.00095024 -0.000548276 -0.000980768 -0.00095024 -0.0015164 -0.000980768 -0.00153156 -0.000548276 -0.000980768 -0.000462705 -0.000899029 -0.000980768 -0.00153156 -0.000899029 -0.00145417 -0.000513854 -0.000137274 -0.000344358 3.11138e-05 -0.000137274 3.18806e-05 3.11138e-05 0.000241216 -0.000344358 3.11138e-05 4.21303e-06 0.00033869 3.11138e-05 0.000241216 0.00033869 0.000599465 3.18806e-05 0.000101284 0.000241216 0.000321267 0.000101284 3.84662e-05 0.000321267 0.000264288 0.000241216 0.000321267 0.000599465 0.000685839 0.000321267 0.000264288 0.000685839 0.000634403 4.21303e-06 0.00033869 0.000532268 0.000791738 0.00033869 0.000599465 0.000791738 0.00111605 0.000532268 0.000791738 0.00124297 0.00139644 0.000791738 0.00111605 0.00139644 0.00180003 0.000599465 0.000685839 0.00111605 0.00120431 0.000685839 0.000634403 0.00120431 0.00115712 0.00111605 0.00120431 0.00180003 0.00188644 0.00120431 0.00115712 0.00188644 0.001842 3.84662e-05 -0.000149375 0.000264288 7.5859e-05 -0.000149375 -0.000462705 7.5859e-05 -0.000241644 0.000264288 7.5859e-05 0.000634403 0.000443508 7.5859e-05 -0.000241644 0.000443508 0.000118212 -0.000462705 -0.000899029 -0.000241644 -0.000684823 -0.000899029 -0.00145417 -0.000684823 -0.00124906 -0.000241644 -0.000684823 0.000118212 -0.000337538 -0.000684823 -0.00124906 -0.000337538 -0.000918574 0.000634403 0.000443508 0.00115712 0.000960889 0.000443508 0.000118212 0.000960889 0.00062357 0.00115712 0.000960889 0.001842 0.00163699 0.000960889 0.00062357 0.00163699 0.00128281 0.000118212 -0.000337538 0.00062357 0.000149334 -0.000337538 -0.000918574 0.000149334 -0.00045611 0.00062357 0.000149334 0.00128281 0.000783601 0.000149334 -0.00045611 0.000783601 0.000145628 -0.00123275 -0.00203251 -0.00124109 -0.00187339 -0.00203251 -0.00295635 -0.00187339 -0.00260456 -0.00124109 -0.00187339 -0.0015164 -0.0021982 -0.00187339 -0.00260456 -0.0021982 -0.00298676 -0.00295635 -0.00399183 -0.00260456 -0.00342488 -0.00399183 -0.00512555 -0.00342488 -0.00432367 -0.00260456 -0.00342488 -0.00298676 -0.00387191 -0.00342488 -0.00432367 -0.00387191 -0.00484224 -0.0015164 -0.0021982 -0.00153156 -0.00219437 -0.0021982 -0.00298676 -0.00219437 -0.00296113 -0.00153156 -0.00219437 -0.00145417 -0.00212207 -0.00219437 -0.00296113 -0.00212207 -0.00289494 -0.00298676 -0.00387191 -0.00296113 -0.00382233 -0.00387191 -0.00484224 -0.00382233 -0.00476708 -0.00296113 -0.00382233 -0.00289494 -0.00376348 -0.00382233 -0.00476708 -0.00376348 -0.00471694 -0.00512555 -0.00634289 -0.00432367 -0.00528927 -0.00634289 -0.007628 -0.00528927 -0.00630897 -0.00432367 -0.00528927 -0.00484224 -0.00588516 -0.00528927 -0.00630897 -0.00588516 -0.00698694 -0.007628 -0.00896383 -0.00630897 -0.00736912 -0.00896383 -0.0103323 -0.00736912 -0.00845524 -0.00630897 -0.00736912 -0.00698694 -0.00813278 -0.00736912 -0.00845524 -0.00813278 -0.00930693 -0.00484224 -0.00588516 -0.00476708 -0.00578325 -0.00588516 -0.00698694 -0.00578325 -0.00685752 -0.00476708 -0.00578325 -0.00471694 -0.00574325 -0.00578325 -0.00685752 -0.00574325 -0.00682911 -0.00698694 -0.00813278 -0.00685752 -0.0079755 -0.00813278 -0.00930693 -0.0079755 -0.00912184 -0.00685752 -0.0079755 -0.00682911 -0.00796005 -0.0079755 -0.00912184 -0.00796005 -0.0091206 -0.00145417 -0.00212207 -0.00124906 -0.00192818 -0.00212207 -0.00289494 -0.00192818 -0.00271446 -0.00124906 -0.00192818 -0.000918574 -0.00161846 -0.00192818 -0.00271446 -0.00161846 -0.00242932 -0.00289494 -0.00376348 -0.00271446 -0.00359865 -0.00376348 -0.00471694 -0.00359865 -0.00457002 -0.00271446 -0.00359865 -0.00242932 -0.00334179 -0.00359865 -0.00457002 -0.00334179 -0.00434501 -0.000918574 -0.00161846 -0.00045611 -0.00118601 -0.00161846 -0.00242932 -0.00118601 -0.00203221 -0.00045611 -0.00118601 0.000145628 -0.000623979 -0.00118601 -0.00203221 -0.000623979 -0.0015167 -0.00242932 -0.00334179 -0.00203221 -0.00298508 -0.00334179 -0.00434501 -0.00298508 -0.00403355 -0.00203221 -0.00298508 -0.0015167 -0.00252259 -0.00298508 -0.00403355 -0.00252259 -0.00363017 -0.00471694 -0.00574325 -0.00457002 -0.0056165 -0.00574325 -0.00682911 -0.0056165 -0.00672468 -0.00457002 -0.0056165 -0.00434501 -0.00542673 -0.0056165 -0.00672468 -0.00542673 -0.00657334 -0.00682911 -0.00796005 -0.00672468 -0.00787999 -0.00796005 -0.0091206 -0.00787999 -0.00906672 -0.00672468 -0.00787999 -0.00657334 -0.00776998 -0.00787999 -0.00906672 -0.00776998 -0.00900055 -0.00434501 -0.00542673 -0.00403355 -0.00516506 -0.00542673 -0.00657334 -0.00516506 -0.00636565 -0.00403355 -0.00516506 -0.00363017 -0.00482653 -0.00516506 -0.00636565 -0.00482653 -0.00609726 -0.00657334 -0.00776998 -0.00636565 -0.00762005 -0.00776998 -0.00900055 -0.00762005 -0.00891163 -0.00636565 -0.00762005 -0.00609726 -0.00742652 -0.00762005 -0.00891163 -0.00742652 -0.00879708 0.00124297 0.00139644 0.00214371 0.00216079 0.00139644 0.00180003 0.00216079 0.00266173 0.00214371 0.00216079 0.00324603 0.00309537 0.00216079 0.00266173 0.00309537 0.00371378 0.00180003 0.00188644 0.00266173 0.00274316 0.00188644 0.001842 0.00274316 0.00270018 0.00266173 0.00274316 0.00371378 0.00378757 0.00274316 0.00270018 0.00378757 0.00374496 0.00324603 0.00309537 0.00456532 0.00421364 0.00309537 0.00371378 0.00421364 0.00497178 0.00456532 0.00421364 0.0061207 0.00553214 0.00421364 0.00497178 0.00553214 0.00645466 0.00371378 0.00378757 0.00497178 0.00503544 0.00378757 0.00374496 0.00503544 0.00499228 0.00497178 0.00503544 0.00645466 0.00650577 0.00503544 0.00499228 0.00650577 0.0064612 0.001842 0.00163699 0.00270018 0.00248274 0.00163699 0.00128281 0.00248274 0.00210647 0.00270018 0.00248274 0.00374496 0.00351129 0.00248274 0.00210647 0.00351129 0.00310739 0.00128281 0.000783601 0.00210647 0.00157541 0.000783601 0.000145628 0.00157541 0.000896395 0.00210647 0.00157541 0.00310739 0.00253716 0.00157541 0.000896395 0.00253716 0.00180817 0.00374496 0.00351129 0.00499228 0.00473841 0.00351129 0.00310739 0.00473841 0.00430101 0.00499228 0.00473841 0.0064612 0.00618288 0.00473841 0.00430101 0.00618288 0.00570561 0.00310739 0.00253716 0.00430101 0.00368384 0.00253716 0.00180817 0.00368384 0.00289537 0.00430101 0.00368384 0.00570561 0.00503313 0.00368384 0.00289537 0.00503313 0.00417504 0.0061207 0.00553214 0.00793519 0.00707089 0.00553214 0.00645466 0.00707089 0.00818522 0.00793519 0.00707089 0.0100362 0.00885379 0.00707089 0.00818522 0.00885379 0.0101908 0.00645466 0.00650577 0.00818522 0.00822133 0.00650577 0.0064612 0.00822133 0.00817445 0.00818522 0.00822133 0.0101908 0.0102093 0.00822133 0.00817445 0.0102093 0.010159 0.0100362 0.00885379 0.0124561 0.0109095 0.00885379 0.0101908 0.0109095 0.0125042 0.0124561 0.0109095 0.0152334 0.0132722 0.0109095 0.0125042 0.0132722 0.0151648 0.0101908 0.0102093 0.0125042 0.0125023 0.0102093 0.010159 0.0125023 0.0124471 0.0125042 0.0125023 0.0151648 0.0151395 0.0125023 0.0124471 0.0151395 0.0150771 0.0064612 0.00618288 0.00817445 0.00786696 0.00618288 0.00570561 0.00786696 0.00734277 0.00817445 0.00786696 0.010159 0.00981694 0.00786696 0.00734277 0.00981694 0.00923779 0.00570561 0.00503313 0.00734277 0.00660578 0.00503313 0.00417504 0.00660578 0.00566706 0.00734277 0.00660578 0.00923779 0.00842597 0.00660578 0.00566706 0.00842597 0.00739442 0.010159 0.00981694 0.0124471 0.0120639 0.00981694 0.00923779 0.0120639 0.0114203 0.0124471 0.0120639 0.0150771 0.0146444 0.0120639 0.0114203 0.0146444 0.0139248 0.00923779 0.00842597 0.0114203 0.0105217 0.00842597 0.00739442 0.0105217 0.00938348 0.0114203 0.0105217 0.0139248 0.0129252 0.0105217 0.00938348 0.0129252 0.0116643 0.000145628 -0.000623979 0.000896395 7.70146e-05 -0.000623979 -0.0015167 7.70146e-05 -0.000873799 0.000896395 7.70146e-05 0.00180817 0.000928482 7.70146e-05 -0.000873799 0.000928482 -9.24371e-05 -0.0015167 -0.00252259 -0.000873799 -0.00194565 -0.00252259 -0.00363017 -0.00194565 -0.00312663 -0.000873799 -0.00194565 -9.24371e-05 -0.00124368 -0.00194565 -0.00312663 -0.00124368 -0.00251284 0.00180817 0.000928482 0.00289537 0.00194429 0.000928482 -9.24371e-05 0.00194429 0.000840697 0.00289537 0.00194429 0.00417504 0.00314082 0.00194429 0.000840697 0.00314082 0.00194131 -9.24371e-05 -0.00124368 0.000840697 -0.00040392 -0.00124368 -0.00251284 -0.00040392 -0.00177657 0.000840697 -0.00040392 0.00194131 0.000588704 -0.00040392 -0.00177657 0.000588704 -0.000903365 -0.00363017 -0.00482653 -0.00312663 -0.00440336 -0.00482653 -0.00609726 -0.00440336 -0.00576087 -0.00312663 -0.00440336 -0.00251284 -0.00388596 -0.00440336 -0.00576087 -0.00388596 -0.0053475 -0.00609726 -0.00742652 -0.00576087 -0.00718272 -0.00742652 -0.00879708 -0.00718272 -0.00865093 -0.00576087 -0.00718272 -0.0053475 -0.00688035 -0.00718272 -0.00865093 -0.00688035 -0.00846574 -0.00251284 -0.00388596 -0.00177657 -0.0032627 -0.00388596 -0.0053475 -0.0032627 -0.00484616 -0.00177657 -0.0032627 -0.000903365 -0.00251972 -0.0032627 -0.00484616 -0.00251972 -0.00424363 -0.0053475 -0.00688035 -0.00484616 -0.00650915 -0.00688035 -0.00846574 -0.00650915 -0.00823214 -0.00484616 -0.00650915 -0.00424363 -0.00605666 -0.00650915 -0.00823214 -0.00605666 -0.00793853 0.00417504 0.00314082 0.00566706 0.00453708 0.00314082 0.00194131 0.00453708 0.0032276 0.00566706 0.00453708 0.00739442 0.00615491 0.00453708 0.0032276 0.00615491 0.00472036 0.00194131 0.000588704 0.0032276 0.00175163 0.000588704 -0.000903365 0.00175163 0.000123527 0.0032276 0.00175163 0.00472036 0.00310476 0.00175163 0.000123527 0.00310476 0.00132327 0.00739442 0.00615491 0.00938348 0.00801916 0.00615491 0.00472036 0.00801916 0.00644311 0.00938348 0.00801916 0.0116643 0.0101578 0.00801916 0.00644311 0.0101578 0.008422 0.00472036 0.00310476 0.00644311 0.00467048 0.00310476 0.00132327 0.00467048 0.0027174 0.00644311 0.00467048 0.008422 0.00647356 0.00467048 0.0027174 0.00647356 0.00432966 -0.000903365 -0.00251972 0.000123527 -0.00164091 -0.00251972 -0.00424363 -0.00164091 -0.00352438 0.000123527 -0.00164091 0.00132327 -0.000607689 -0.00164091 -0.00352438 -0.000607689 -0.00267036 -0.00424363 -0.00605666 -0.00352438 -0.00550795 -0.00605666 -0.00793853 -0.00550795 -0.00757076 -0.00352438 -0.00550795 -0.00267036 -0.00484545 -0.00550795 -0.00757076 -0.00484545 -0.00711182 0.00132327 -0.000607689 0.0027174 0.000600878 -0.000607689 -0.00267036 0.000600878 -0.00166097 0.0027174 0.000600878 0.00432966 0.00200797 0.000600878 -0.00166097 0.00200797 -0.000473223 -0.00267036 -0.00484545 -0.00166097 -0.00404877 -0.00484545 -0.00711182 -0.00404877 -0.00654148 -0.00166097 -0.00404877 -0.000473223 -0.00309477 -0.00404877 -0.00654148 -0.00309477 -0.00583624 -0.0103323 -0.0117142 -0.00845524 -0.00955204 -0.0117142 -0.0130899 -0.00955204 -0.0106437 -0.00845524 -0.00955204 -0.00930693 -0.0104928 -0.00955204 -0.0106437 -0.0104928 -0.0116732 -0.0130899 -0.014439 -0.0106437 -0.0117139 -0.014439 -0.0157409 -0.0117139 -0.0127463 -0.0106437 -0.0117139 -0.0116732 -0.0128305 -0.0117139 -0.0127463 -0.0128305 -0.0139467 -0.00930693 -0.0104928 -0.00912184 -0.0102803 -0.0104928 -0.0116732 -0.0102803 -0.011434 -0.00912184 -0.0102803 -0.0091206 -0.0102944 -0.0102803 -0.011434 -0.0102944 -0.0114642 -0.0116732 -0.0128305 -0.011434 -0.0125656 -0.0128305 -0.0139467 -0.0125656 -0.0136575 -0.011434 -0.0125656 -0.0114642 -0.0126126 -0.0125656 -0.0136575 -0.0126126 -0.0137214 -0.0157409 -0.0169751 -0.0127463 -0.0137243 -0.0169751 -0.0181212 -0.0137243 -0.0146319 -0.0127463 -0.0137243 -0.0139467 -0.015004 -0.0137243 -0.0146319 -0.015004 -0.015985 -0.0181212 -0.0191597 -0.0146319 -0.0154534 -0.0191597 -0.0200715 -0.0154534 -0.016174 -0.0146319 -0.0154534 -0.015985 -0.0168727 -0.0154534 -0.016174 -0.0168727 -0.0176514 -0.0139467 -0.015004 -0.0136575 -0.0146921 -0.015004 -0.015985 -0.0146921 -0.0156523 -0.0136575 -0.0146921 -0.0137214 -0.0147729 -0.0146921 -0.0156523 -0.0147729 -0.0157493 -0.015985 -0.0168727 -0.0156523 -0.0165214 -0.0168727 -0.0176514 -0.0165214 -0.0172842 -0.0156523 -0.0165214 -0.0157493 -0.0166337 -0.0165214 -0.0172842 -0.0166337 -0.0174106 -0.0091206 -0.0102944 -0.00906672 -0.0102682 -0.0102944 -0.0114642 -0.0102682 -0.0114669 -0.00906672 -0.0102682 -0.00900055 -0.0102479 -0.0102682 -0.0114669 -0.0102479 -0.011494 -0.0114642 -0.0126126 -0.0114669 -0.0126449 -0.0126126 -0.0137214 -0.0126449 -0.0137835 -0.0114669 -0.0126449 -0.011494 -0.01272 -0.0126449 -0.0137835 -0.01272 -0.0139067 -0.00900055 -0.0102479 -0.00891163 -0.0102226 -0.0102479 -0.011494 -0.0102226 -0.0115342 -0.00891163 -0.0102226 -0.00879708 -0.0101904 -0.0102226 -0.0115342 -0.0101904 -0.0115866 -0.011494 -0.01272 -0.0115342 -0.0128267 -0.01272 -0.0139067 -0.0128267 -0.0140796 -0.0115342 -0.0128267 -0.0115866 -0.012965 -0.0128267 -0.0140796 -0.012965 -0.0143037 -0.0137214 -0.0147729 -0.0137835 -0.0148642 -0.0147729 -0.0157493 -0.0148642 -0.0158688 -0.0137835 -0.0148642 -0.0139067 -0.0150345 -0.0148642 -0.0158688 -0.0150345 -0.0160842 -0.0157493 -0.0166337 -0.0158688 -0.0167797 -0.0166337 -0.0174106 -0.0167797 -0.0175804 -0.0158688 -0.0167797 -0.0160842 -0.0170371 -0.0167797 -0.0175804 -0.0170371 -0.0178754 -0.0139067 -0.0150345 -0.0140796 -0.0152723 -0.0150345 -0.0160842 -0.0152723 -0.0163841 -0.0140796 -0.0152723 -0.0143037 -0.0155805 -0.0152723 -0.0163841 -0.0155805 -0.0167729 -0.0160842 -0.0170371 -0.0163841 -0.0173947 -0.0170371 -0.0178754 -0.0173947 -0.0182849 -0.0163841 -0.0173947 -0.0167729 -0.0178586 -0.0173947 -0.0182849 -0.0178586 -0.0188165 -0.0200715 -0.0208385 -0.016174 -0.0167797 -0.0208385 -0.0214427 -0.0167797 -0.0172589 -0.016174 -0.0167797 -0.0176514 -0.0183066 -0.0167797 -0.0172589 -0.0183066 -0.0188267 -0.0214427 -0.0218694 -0.0172589 -0.017598 -0.0218694 -0.0220942 -0.017598 -0.0178107 -0.0172589 -0.017598 -0.0188267 -0.0192002 -0.017598 -0.0178107 -0.0192002 -0.0194386 -0.0176514 -0.0183066 -0.0172842 -0.0179268 -0.0183066 -0.0188267 -0.0179268 -0.0184383 -0.0172842 -0.0179268 -0.0174106 -0.0180656 -0.0179268 -0.0184383 -0.0180656 -0.0185876 -0.0188267 -0.0192002 -0.0184383 -0.0188079 -0.0192002 -0.0194386 -0.0188079 -0.0190478 -0.0184383 -0.0188079 -0.0185876 -0.0189653 -0.0188079 -0.0190478 -0.0189653 -0.0192096 -0.0220942 -0.0221637 -0.0178107 -0.0178029 -0.0221637 -0.0220219 -0.0178029 -0.0181083 -0.0178107 -0.0178029 -0.0194386 -0.019463 -0.0178029 -0.0181083 -0.019463 -0.0197575 -0.0220219 -0.0207363 -0.0181083 -0.0162112 -0.0207363 -0.0226123 -0.0162112 -0.0204961 -0.0181083 -0.0162112 -0.0197575 -0.0178783 -0.0162112 -0.0204961 -0.0178783 -0.0213043 -0.0194386 -0.019463 -0.0190478 -0.0190726 -0.019463 -0.0197575 -0.0190726 -0.0193789 -0.0190478 -0.0190726 -0.0192096 -0.0192332 -0.0190726 -0.0193789 -0.0192332 -0.0195229 -0.0197575 -0.0178783 -0.0193789 -0.0174528 -0.0178783 -0.0213043 -0.0174528 -0.0211443 -0.0193789 -0.0174528 -0.0195229 -0.0175673 -0.0174528 -0.0211443 -0.0175673 -0.0211077 -0.0174106 -0.0180656 -0.0175804 -0.018256 -0.0180656 -0.0185876 -0.018256 -0.0187945 -0.0175804 -0.018256 -0.0178754 -0.0185833 -0.018256 -0.0187945 -0.0185833 -0.0191474 -0.0185876 -0.0189653 -0.0187945 -0.0191836 -0.0189653 -0.0192096 -0.0191836 -0.019433 -0.0187945 -0.0191836 -0.0191474 -0.0195542 -0.0191836 -0.019433 -0.0195542 -0.0198123 -0.0178754 -0.0185833 -0.0182849 -0.0190371 -0.0185833 -0.0191474 -0.0190371 -0.0196366 -0.0182849 -0.0190371 -0.0188165 -0.0196268 -0.0190371 -0.0196366 -0.0196268 -0.0202728 -0.0191474 -0.0195542 -0.0196366 -0.0200682 -0.0195542 -0.0198123 -0.0200682 -0.0203399 -0.0196366 -0.0200682 -0.0202728 -0.0207376 -0.0200682 -0.0203399 -0.0207376 -0.0210288 -0.0192096 -0.0192332 -0.019433 -0.0194522 -0.0192332 -0.0195229 -0.0194522 -0.0197313 -0.019433 -0.0194522 -0.0198123 -0.0198286 -0.0194522 -0.0197313 -0.0198286 -0.0201011 -0.0195229 -0.0175673 -0.0197313 -0.0177291 -0.0175673 -0.0211077 -0.0177291 -0.0212918 -0.0197313 -0.0177291 -0.0201011 -0.0180461 -0.0177291 -0.0212918 -0.0180461 -0.0216453 -0.0198123 -0.0198286 -0.0203399 -0.0203556 -0.0198286 -0.0201011 -0.0203556 -0.0206264 -0.0203399 -0.0203556 -0.0210288 -0.0210466 -0.0203556 -0.0206264 -0.0210466 -0.0213196 -0.0201011 -0.0180461 -0.0206264 -0.0185049 -0.0180461 -0.0216453 -0.0185049 -0.0221779 -0.0206264 -0.0185049 -0.0213196 -0.0191154 -0.0185049 -0.0221779 -0.0191154 -0.0228906 -0.00879708 -0.0101904 -0.00865093 -0.010146 -0.0101904 -0.0115866 -0.010146 -0.0116472 -0.00865093 -0.010146 -0.00846574 -0.0100833 -0.010146 -0.0116472 -0.0100833 -0.0117108 -0.0115866 -0.012965 -0.0116472 -0.0131322 -0.012965 -0.0143037 -0.0131322 -0.0145777 -0.0116472 -0.0131322 -0.0117108 -0.0133247 -0.0131322 -0.0145777 -0.0133247 -0.0148997 -0.00846574 -0.0100833 -0.00823214 -0.0099937 -0.0100833 -0.0117108 -0.0099937 -0.0117705 -0.00823214 -0.0099937 -0.00793853 -0.00986692 -0.0099937 -0.0117705 -0.00986692 -0.0118173 -0.0117108 -0.0133247 -0.0117705 -0.0135373 -0.0133247 -0.0148997 -0.0135373 -0.0152666 -0.0117705 -0.0135373 -0.0118173 -0.0137627 -0.0135373 -0.0152666 -0.0137627 -0.0156737 -0.0143037 -0.0155805 -0.0145777 -0.0159594 -0.0155805 -0.0167729 -0.0159594 -0.0172527 -0.0145777 -0.0159594 -0.0148997 -0.0164093 -0.0159594 -0.0172527 -0.0164093 -0.0178262 -0.0167729 -0.0178586 -0.0172527 -0.0184329 -0.0178586 -0.0188165 -0.0184329 -0.0194762 -0.0172527 -0.0184329 -0.0178262 -0.0191226 -0.0184329 -0.0194762 -0.0191226 -0.0202715 -0.0148997 -0.0164093 -0.0152666 -0.0169295 -0.0164093 -0.0178262 -0.0169295 -0.0184955 -0.0152666 -0.0169295 -0.0156737 -0.0175183 -0.0169295 -0.0184955 -0.0175183 -0.0192621 -0.0178262 -0.0191226 -0.0184955 -0.0199331 -0.0191226 -0.0202715 -0.0199331 -0.021211 -0.0184955 -0.0199331 -0.0192621 -0.0208695 -0.0199331 -0.021211 -0.0208695 -0.022304 -0.00793853 -0.00986692 -0.00757076 -0.00968979 -0.00986692 -0.0118173 -0.00968979 -0.0118395 -0.00757076 -0.00968979 -0.00711182 -0.00944603 -0.00968979 -0.0118395 -0.00944603 -0.0118219 -0.0118173 -0.0137627 -0.0118395 -0.0139913 -0.0137627 -0.0156737 -0.0139913 -0.0161136 -0.0118395 -0.0139913 -0.0118219 -0.0142096 -0.0139913 -0.0161136 -0.0142096 -0.0165756 -0.00711182 -0.00944603 -0.00654148 -0.00911576 -0.00944603 -0.0118219 -0.00911576 -0.0117453 -0.00654148 -0.00911576 -0.00583624 -0.00867509 -0.00911576 -0.0117453 -0.00867509 -0.0115858 -0.0118219 -0.0142096 -0.0117453 -0.0143998 -0.0142096 -0.0165756 -0.0143998 -0.017044 -0.0117453 -0.0143998 -0.0115858 -0.0145384 -0.0143998 -0.017044 -0.0145384 -0.0174972 -0.0156737 -0.0175183 -0.0161136 -0.0181713 -0.0175183 -0.0192621 -0.0181713 -0.020126 -0.0161136 -0.0181713 -0.0165756 -0.0188815 -0.0181713 -0.020126 -0.0188815 -0.0210844 -0.0192621 -0.0208695 -0.020126 -0.0219366 -0.0208695 -0.022304 -0.0219366 -0.0235602 -0.020126 -0.0219366 -0.0210844 -0.023137 -0.021