# vtk DataFile Version 3.0
#This file was generated by the deal.II library on 2026/1/5 at 14:19:28
ASCII
DATASET UNSTRUCTURED_GRID

POINTS 4096 double
0 0 0
0.03125 0 0
0 0.03125 0
0.03125 0.03125 0
0.03125 0 0
0.0625 0 0
0.03125 0.03125 0
0.0625 0.03125 0
0 0.03125 0
0.03125 0.03125 0
0 0.0625 0
0.03125 0.0625 0
0.03125 0.03125 0
0.0625 0.03125 0
0.03125 0.0625 0
0.0625 0.0625 0
0.0625 0 0
0.09375 0 0
0.0625 0.03125 0
0.09375 0.03125 0
0.09375 0 0
0.125 0 0
0.09375 0.03125 0
0.125 0.03125 0
0.0625 0.03125 0
0.09375 0.03125 0
0.0625 0.0625 0
0.09375 0.0625 0
0.09375 0.03125 0
0.125 0.03125 0
0.09375 0.0625 0
0.125 0.0625 0
0 0.0625 0
0.03125 0.0625 0
0 0.09375 0
0.03125 0.09375 0
0.03125 0.0625 0
0.0625 0.0625 0
0.03125 0.09375 0
0.0625 0.09375 0
0 0.09375 0
0.03125 0.09375 0
0 0.125 0
0.03125 0.125 0
0.03125 0.09375 0
0.0625 0.09375 0
0.03125 0.125 0
0.0625 0.125 0
0.0625 0.0625 0
0.09375 0.0625 0
0.0625 0.09375 0
0.09375 0.09375 0
0.09375 0.0625 0
0.125 0.0625 0
0.09375 0.09375 0
0.125 0.09375 0
0.0625 0.09375 0
0.09375 0.09375 0
0.0625 0.125 0
0.09375 0.125 0
0.09375 0.09375 0
0.125 0.09375 0
0.09375 0.125 0
0.125 0.125 0
0.125 0 0
0.15625 0 0
0.125 0.03125 0
0.15625 0.03125 0
0.15625 0 0
0.1875 0 0
0.15625 0.03125 0
0.1875 0.03125 0
0.125 0.03125 0
0.15625 0.03125 0
0.125 0.0625 0
0.15625 0.0625 0
0.15625 0.03125 0
0.1875 0.03125 0
0.15625 0.0625 0
0.1875 0.0625 0
0.1875 0 0
0.21875 0 0
0.1875 0.03125 0
0.21875 0.03125 0
0.21875 0 0
0.25 0 0
0.21875 0.03125 0
0.25 0.03125 0
0.1875 0.03125 0
0.21875 0.03125 0
0.1875 0.0625 0
0.21875 0.0625 0
0.21875 0.03125 0
0.25 0.03125 0
0.21875 0.0625 0
0.25 0.0625 0
0.125 0.0625 0
0.15625 0.0625 0
0.125 0.09375 0
0.15625 0.09375 0
0.15625 0.0625 0
0.1875 0.0625 0
0.15625 0.09375 0
0.1875 0.09375 0
0.125 0.09375 0
0.15625 0.09375 0
0.125 0.125 0
0.15625 0.125 0
0.15625 0.09375 0
0.1875 0.09375 0
0.15625 0.125 0
0.1875 0.125 0
0.1875 0.0625 0
0.21875 0.0625 0
0.1875 0.09375 0
0.21875 0.09375 0
0.21875 0.0625 0
0.25 0.0625 0
0.21875 0.09375 0
0.25 0.09375 0
0.1875 0.09375 0
0.21875 0.09375 0
0.1875 0.125 0
0.21875 0.125 0
0.21875 0.09375 0
0.25 0.09375 0
0.21875 0.125 0
0.25 0.125 0
0 0.125 0
0.03125 0.125 0
0 0.15625 0
0.03125 0.15625 0
0.03125 0.125 0
0.0625 0.125 0
0.03125 0.15625 0
0.0625 0.15625 0
0 0.15625 0
0.03125 0.15625 0
0 0.1875 0
0.03125 0.1875 0
0.03125 0.15625 0
0.0625 0.15625 0
0.03125 0.1875 0
0.0625 0.1875 0
0.0625 0.125 0
0.09375 0.125 0
0.0625 0.15625 0
0.09375 0.15625 0
0.09375 0.125 0
0.125 0.125 0
0.09375 0.15625 0
0.125 0.15625 0
0.0625 0.15625 0
0.09375 0.15625 0
0.0625 0.1875 0
0.09375 0.1875 0
0.09375 0.15625 0
0.125 0.15625 0
0.09375 0.1875 0
0.125 0.1875 0
0 0.1875 0
0.03125 0.1875 0
0 0.21875 0
0.03125 0.21875 0
0.03125 0.1875 0
0.0625 0.1875 0
0.03125 0.21875 0
0.0625 0.21875 0
0 0.21875 0
0.03125 0.21875 0
0 0.25 0
0.03125 0.25 0
0.03125 0.21875 0
0.0625 0.21875 0
0.03125 0.25 0
0.0625 0.25 0
0.0625 0.1875 0
0.09375 0.1875 0
0.0625 0.21875 0
0.09375 0.21875 0
0.09375 0.1875 0
0.125 0.1875 0
0.09375 0.21875 0
0.125 0.21875 0
0.0625 0.21875 0
0.09375 0.21875 0
0.0625 0.25 0
0.09375 0.25 0
0.09375 0.21875 0
0.125 0.21875 0
0.09375 0.25 0
0.125 0.25 0
0.125 0.125 0
0.15625 0.125 0
0.125 0.15625 0
0.15625 0.15625 0
0.15625 0.125 0
0.1875 0.125 0
0.15625 0.15625 0
0.1875 0.15625 0
0.125 0.15625 0
0.15625 0.15625 0
0.125 0.1875 0
0.15625 0.1875 0
0.15625 0.15625 0
0.1875 0.15625 0
0.15625 0.1875 0
0.1875 0.1875 0
0.1875 0.125 0
0.21875 0.125 0
0.1875 0.15625 0
0.21875 0.15625 0
0.21875 0.125 0
0.25 0.125 0
0.21875 0.15625 0
0.25 0.15625 0
0.1875 0.15625 0
0.21875 0.15625 0
0.1875 0.1875 0
0.21875 0.1875 0
0.21875 0.15625 0
0.25 0.15625 0
0.21875 0.1875 0
0.25 0.1875 0
0.125 0.1875 0
0.15625 0.1875 0
0.125 0.21875 0
0.15625 0.21875 0
0.15625 0.1875 0
0.1875 0.1875 0
0.15625 0.21875 0
0.1875 0.21875 0
0.125 0.21875 0
0.15625 0.21875 0
0.125 0.25 0
0.15625 0.25 0
0.15625 0.21875 0
0.1875 0.21875 0
0.15625 0.25 0
0.1875 0.25 0
0.1875 0.1875 0
0.21875 0.1875 0
0.1875 0.21875 0
0.21875 0.21875 0
0.21875 0.1875 0
0.25 0.1875 0
0.21875 0.21875 0
0.25 0.21875 0
0.1875 0.21875 0
0.21875 0.21875 0
0.1875 0.25 0
0.21875 0.25 0
0.21875 0.21875 0
0.25 0.21875 0
0.21875 0.25 0
0.25 0.25 0
0.25 0 0
0.28125 0 0
0.25 0.03125 0
0.28125 0.03125 0
0.28125 0 0
0.3125 0 0
0.28125 0.03125 0
0.3125 0.03125 0
0.25 0.03125 0
0.28125 0.03125 0
0.25 0.0625 0
0.28125 0.0625 0
0.28125 0.03125 0
0.3125 0.03125 0
0.28125 0.0625 0
0.3125 0.0625 0
0.3125 0 0
0.34375 0 0
0.3125 0.03125 0
0.34375 0.03125 0
0.34375 0 0
0.375 0 0
0.34375 0.03125 0
0.375 0.03125 0
0.3125 0.03125 0
0.34375 0.03125 0
0.3125 0.0625 0
0.34375 0.0625 0
0.34375 0.03125 0
0.375 0.03125 0
0.34375 0.0625 0
0.375 0.0625 0
0.25 0.0625 0
0.28125 0.0625 0
0.25 0.09375 0
0.28125 0.09375 0
0.28125 0.0625 0
0.3125 0.0625 0
0.28125 0.09375 0
0.3125 0.09375 0
0.25 0.09375 0
0.28125 0.09375 0
0.25 0.125 0
0.28125 0.125 0
0.28125 0.09375 0
0.3125 0.09375 0
0.28125 0.125 0
0.3125 0.125 0
0.3125 0.0625 0
0.34375 0.0625 0
0.3125 0.09375 0
0.34375 0.09375 0
0.34375 0.0625 0
0.375 0.0625 0
0.34375 0.09375 0
0.375 0.09375 0
0.3125 0.09375 0
0.34375 0.09375 0
0.3125 0.125 0
0.34375 0.125 0
0.34375 0.09375 0
0.375 0.09375 0
0.34375 0.125 0
0.375 0.125 0
0.375 0 0
0.40625 0 0
0.375 0.03125 0
0.40625 0.03125 0
0.40625 0 0
0.4375 0 0
0.40625 0.03125 0
0.4375 0.03125 0
0.375 0.03125 0
0.40625 0.03125 0
0.375 0.0625 0
0.40625 0.0625 0
0.40625 0.03125 0
0.4375 0.03125 0
0.40625 0.0625 0
0.4375 0.0625 0
0.4375 0 0
0.46875 0 0
0.4375 0.03125 0
0.46875 0.03125 0
0.46875 0 0
0.5 0 0
0.46875 0.03125 0
0.5 0.03125 0
0.4375 0.03125 0
0.46875 0.03125 0
0.4375 0.0625 0
0.46875 0.0625 0
0.46875 0.03125 0
0.5 0.03125 0
0.46875 0.0625 0
0.5 0.0625 0
0.375 0.0625 0
0.40625 0.0625 0
0.375 0.09375 0
0.40625 0.09375 0
0.40625 0.0625 0
0.4375 0.0625 0
0.40625 0.09375 0
0.4375 0.09375 0
0.375 0.09375 0
0.40625 0.09375 0
0.375 0.125 0
0.40625 0.125 0
0.40625 0.09375 0
0.4375 0.09375 0
0.40625 0.125 0
0.4375 0.125 0
0.4375 0.0625 0
0.46875 0.0625 0
0.4375 0.09375 0
0.46875 0.09375 0
0.46875 0.0625 0
0.5 0.0625 0
0.46875 0.09375 0
0.5 0.09375 0
0.4375 0.09375 0
0.46875 0.09375 0
0.4375 0.125 0
0.46875 0.125 0
0.46875 0.09375 0
0.5 0.09375 0
0.46875 0.125 0
0.5 0.125 0
0.25 0.125 0
0.28125 0.125 0
0.25 0.15625 0
0.28125 0.15625 0
0.28125 0.125 0
0.3125 0.125 0
0.28125 0.15625 0
0.3125 0.15625 0
0.25 0.15625 0
0.28125 0.15625 0
0.25 0.1875 0
0.28125 0.1875 0
0.28125 0.15625 0
0.3125 0.15625 0
0.28125 0.1875 0
0.3125 0.1875 0
0.3125 0.125 0
0.34375 0.125 0
0.3125 0.15625 0
0.34375 0.15625 0
0.34375 0.125 0
0.375 0.125 0
0.34375 0.15625 0
0.375 0.15625 0
0.3125 0.15625 0
0.34375 0.15625 0
0.3125 0.1875 0
0.34375 0.1875 0
0.34375 0.15625 0
0.375 0.15625 0
0.34375 0.1875 0
0.375 0.1875 0
0.25 0.1875 0
0.28125 0.1875 0
0.25 0.21875 0
0.28125 0.21875 0
0.28125 0.1875 0
0.3125 0.1875 0
0.28125 0.21875 0
0.3125 0.21875 0
0.25 0.21875 0
0.28125 0.21875 0
0.25 0.25 0
0.28125 0.25 0
0.28125 0.21875 0
0.3125 0.21875 0
0.28125 0.25 0
0.3125 0.25 0
0.3125 0.1875 0
0.34375 0.1875 0
0.3125 0.21875 0
0.34375 0.21875 0
0.34375 0.1875 0
0.375 0.1875 0
0.34375 0.21875 0
0.375 0.21875 0
0.3125 0.21875 0
0.34375 0.21875 0
0.3125 0.25 0
0.34375 0.25 0
0.34375 0.21875 0
0.375 0.21875 0
0.34375 0.25 0
0.375 0.25 0
0.375 0.125 0
0.40625 0.125 0
0.375 0.15625 0
0.40625 0.15625 0
0.40625 0.125 0
0.4375 0.125 0
0.40625 0.15625 0
0.4375 0.15625 0
0.375 0.15625 0
0.40625 0.15625 0
0.375 0.1875 0
0.40625 0.1875 0
0.40625 0.15625 0
0.4375 0.15625 0
0.40625 0.1875 0
0.4375 0.1875 0
0.4375 0.125 0
0.46875 0.125 0
0.4375 0.15625 0
0.46875 0.15625 0
0.46875 0.125 0
0.5 0.125 0
0.46875 0.15625 0
0.5 0.15625 0
0.4375 0.15625 0
0.46875 0.15625 0
0.4375 0.1875 0
0.46875 0.1875 0
0.46875 0.15625 0
0.5 0.15625 0
0.46875 0.1875 0
0.5 0.1875 0
0.375 0.1875 0
0.40625 0.1875 0
0.375 0.21875 0
0.40625 0.21875 0
0.40625 0.1875 0
0.4375 0.1875 0
0.40625 0.21875 0
0.4375 0.21875 0
0.375 0.21875 0
0.40625 0.21875 0
0.375 0.25 0
0.40625 0.25 0
0.40625 0.21875 0
0.4375 0.21875 0
0.40625 0.25 0
0.4375 0.25 0
0.4375 0.1875 0
0.46875 0.1875 0
0.4375 0.21875 0
0.46875 0.21875 0
0.46875 0.1875 0
0.5 0.1875 0
0.46875 0.21875 0
0.5 0.21875 0
0.4375 0.21875 0
0.46875 0.21875 0
0.4375 0.25 0
0.46875 0.25 0
0.46875 0.21875 0
0.5 0.21875 0
0.46875 0.25 0
0.5 0.25 0
0 0.25 0
0.03125 0.25 0
0 0.28125 0
0.03125 0.28125 0
0.03125 0.25 0
0.0625 0.25 0
0.03125 0.28125 0
0.0625 0.28125 0
0 0.28125 0
0.03125 0.28125 0
0 0.3125 0
0.03125 0.3125 0
0.03125 0.28125 0
0.0625 0.28125 0
0.03125 0.3125 0
0.0625 0.3125 0
0.0625 0.25 0
0.09375 0.25 0
0.0625 0.28125 0
0.09375 0.28125 0
0.09375 0.25 0
0.125 0.25 0
0.09375 0.28125 0
0.125 0.28125 0
0.0625 0.28125 0
0.09375 0.28125 0
0.0625 0.3125 0
0.09375 0.3125 0
0.09375 0.28125 0
0.125 0.28125 0
0.09375 0.3125 0
0.125 0.3125 0
0 0.3125 0
0.03125 0.3125 0
0 0.34375 0
0.03125 0.34375 0
0.03125 0.3125 0
0.0625 0.3125 0
0.03125 0.34375 0
0.0625 0.34375 0
0 0.34375 0
0.03125 0.34375 0
0 0.375 0
0.03125 0.375 0
0.03125 0.34375 0
0.0625 0.34375 0
0.03125 0.375 0
0.0625 0.375 0
0.0625 0.3125 0
0.09375 0.3125 0
0.0625 0.34375 0
0.09375 0.34375 0
0.09375 0.3125 0
0.125 0.3125 0
0.09375 0.34375 0
0.125 0.34375 0
0.0625 0.34375 0
0.09375 0.34375 0
0.0625 0.375 0
0.09375 0.375 0
0.09375 0.34375 0
0.125 0.34375 0
0.09375 0.375 0
0.125 0.375 0
0.125 0.25 0
0.15625 0.25 0
0.125 0.28125 0
0.15625 0.28125 0
0.15625 0.25 0
0.1875 0.25 0
0.15625 0.28125 0
0.1875 0.28125 0
0.125 0.28125 0
0.15625 0.28125 0
0.125 0.3125 0
0.15625 0.3125 0
0.15625 0.28125 0
0.1875 0.28125 0
0.15625 0.3125 0
0.1875 0.3125 0
0.1875 0.25 0
0.21875 0.25 0
0.1875 0.28125 0
0.21875 0.28125 0
0.21875 0.25 0
0.25 0.25 0
0.21875 0.28125 0
0.25 0.28125 0
0.1875 0.28125 0
0.21875 0.28125 0
0.1875 0.3125 0
0.21875 0.3125 0
0.21875 0.28125 0
0.25 0.28125 0
0.21875 0.3125 0
0.25 0.3125 0
0.125 0.3125 0
0.15625 0.3125 0
0.125 0.34375 0
0.15625 0.34375 0
0.15625 0.3125 0
0.1875 0.3125 0
0.15625 0.34375 0
0.1875 0.34375 0
0.125 0.34375 0
[...]
POINT_DATA 4096
SCALARS p double 1
LOOKUP_TABLE default
5.557e-07 0.00010834 -0.000107105 1.40954e-06 0.00010834 3.14153e-05 1.40954e-06 -9.67127e-05 -0.000107105 1.40954e-06 -3.0029e-05 0.000103329 1.40954e-06 -9.67127e-05 0.000103329 6.20127e-06 3.14153e-05 -0.000406111 -9.67127e-05 -0.000453963 -0.000406111 -0.00118093 -0.000453963 -0.00107597 -9.67127e-05 -0.000453963 6.20127e-06 -0.000402081 -0.000453963 -0.00107597 -0.000402081 -0.00109718 -3.0029e-05 0.000103329 0.00040929 0.000467925 0.000103329 6.20127e-06 0.000467925 0.000421076 0.00040929 0.000467925 0.00119933 0.00111097 0.000467925 0.000421076 0.00111097 0.00113575 6.20127e-06 -0.000402081 0.000421076 7.15068e-06 -0.000402081 -0.00109718 7.15068e-06 -0.000680347 0.000421076 7.15068e-06 0.00113575 0.000693676 7.15068e-06 -0.000680347 0.000693676 -1.17747e-05 -0.00118093 -0.00227616 -0.00107597 -0.00195588 -0.00227616 -0.00367742 -0.00195588 -0.00308277 -0.00107597 -0.00195588 -0.00109718 -0.00207883 -0.00195588 -0.00308277 -0.00207883 -0.00333443 -0.00367742 -0.00536822 -0.00308277 -0.00444361 -0.00536822 -0.00732931 -0.00444361 -0.0060229 -0.00308277 -0.00444361 -0.00333443 -0.0048501 -0.00444361 -0.0060229 -0.0048501 -0.00660864 -0.00109718 -0.00207883 -0.000680347 -0.00165514 -0.00207883 -0.00333443 -0.00165514 -0.00290148 -0.000680347 -0.00165514 -1.17747e-05 -0.00101787 -0.00165514 -0.00290148 -0.00101787 -0.00230305 -0.00333443 -0.0048501 -0.00290148 -0.00440637 -0.0048501 -0.00660864 -0.00440637 -0.00615269 -0.00290148 -0.00440637 -0.00230305 -0.00385478 -0.00440637 -0.00615269 -0.00385478 -0.00565519 0.00119933 0.00111097 0.0023424 0.00204114 0.00111097 0.00113575 0.00204114 0.00216716 0.0023424 0.00204114 0.00385041 0.00326871 0.00204114 0.00216716 0.00326871 0.00352612 0.00113575 0.000693676 0.00216716 0.00168765 0.000693676 -1.17747e-05 0.00168765 0.000961565 0.00216716 0.00168765 0.00352612 0.00299619 0.00168765 0.000961565 0.00299619 0.00224124 0.00385041 0.00326871 0.0057406 0.00480792 0.00326871 0.00352612 0.00480792 0.00522902 0.0057406 0.00480792 0.00803512 0.00667693 0.00480792 0.00522902 0.00667693 0.00729597 0.00352612 0.00299619 0.00522902 0.00463585 0.00299619 0.00224124 0.00463585 0.00384429 0.00522902 0.00463585 0.00729597 0.00662577 0.00463585 0.00384429 0.00662577 0.005789 -1.17747e-05 -0.00101787 0.000961565 -8.20062e-05 -0.00101787 -0.00230305 -8.20062e-05 -0.00141375 0.000961565 -8.20062e-05 0.00224124 0.00114654 -8.20062e-05 -0.00141375 0.00114654 -0.000248692 -0.00230305 -0.00385478 -0.00141375 -0.00302183 -0.00385478 -0.00565519 -0.00302183 -0.00488738 -0.00141375 -0.00302183 -0.000248692 -0.00193347 -0.00302183 -0.00488738 -0.00193347 -0.00388755 0.00224124 0.00114654 0.00384429 0.00268525 0.00114654 -0.000248692 0.00268525 0.00121029 0.00384429 0.00268525 0.005789 0.0045512 0.00268525 0.00121029 0.0045512 0.00297883 -0.000248692 -0.00193347 0.00121029 -0.000570602 -0.00193347 -0.00388755 -0.000570602 -0.00263544 0.00121029 -0.000570602 0.00297883 0.00108065 -0.000570602 -0.00263544 0.00108065 -0.00111914 -0.00732931 -0.00953874 -0.0060229 -0.00780297 -0.00953874 -0.0119719 -0.00780297 -0.00976399 -0.0060229 -0.00780297 -0.00660864 -0.00859035 -0.00780297 -0.00976399 -0.00859035 -0.0107731 -0.0119719 -0.0146019 -0.00976399 -0.0118842 -0.0146019 -0.0173994 -0.0118842 -0.0141401 -0.00976399 -0.0118842 -0.0107731 -0.0131327 -0.0118842 -0.0141401 -0.0131327 -0.0156431 -0.00660864 -0.00859035 -0.00615269 -0.00812082 -0.00859035 -0.0107731 -0.00812082 -0.0102888 -0.00615269 -0.00812082 -0.00565519 -0.00768407 -0.00812082 -0.0102888 -0.00768407 -0.00991869 -0.0107731 -0.0131327 -0.0102888 -0.0126327 -0.0131327 -0.0156431 -0.0126327 -0.0151264 -0.0102888 -0.0126327 -0.00991869 -0.0123343 -0.0126327 -0.0151264 -0.0123343 -0.0149042 -0.0173994 -0.0203337 -0.0141401 -0.016507 -0.0203337 -0.0233729 -0.016507 -0.0189588 -0.0141401 -0.016507 -0.0156431 -0.0182766 -0.016507 -0.0189588 -0.0182766 -0.0210044 -0.0233729 -0.0264836 -0.0189588 -0.0214687 -0.0264836 -0.0296317 -0.0214687 -0.0240091 -0.0189588 -0.0214687 -0.0210044 -0.0237965 -0.0214687 -0.0240091 -0.0237965 -0.0266224 -0.0156431 -0.0182766 -0.0151264 -0.0177426 -0.0182766 -0.0210044 -0.0177426 -0.0204527 -0.0151264 -0.0177426 -0.0149042 -0.0176003 -0.0177426 -0.0204527 -0.0176003 -0.0203929 -0.0210044 -0.0237965 -0.0204527 -0.0232269 -0.0237965 -0.0266224 -0.0232269 -0.0260349 -0.0204527 -0.0232269 -0.0203929 -0.0232516 -0.0232269 -0.0260349 -0.0232516 -0.0261453 -0.00565519 -0.00768407 -0.00488738 -0.00698936 -0.00768407 -0.00991869 -0.00698936 -0.00930419 -0.00488738 -0.00698936 -0.00388755 -0.00608873 -0.00698936 -0.00930419 -0.00608873 -0.00851224 -0.00991869 -0.0123343 -0.00930419 -0.0118062 -0.0123343 -0.0149042 -0.0118062 -0.0144678 -0.00930419 -0.0118062 -0.00851224 -0.0111311 -0.0118062 -0.0144678 -0.0111311 -0.0139164 -0.00388755 -0.00608873 -0.00263544 -0.00496062 -0.00608873 -0.00851224 -0.00496062 -0.00751981 -0.00263544 -0.00496062 -0.00111914 -0.00359514 -0.00496062 -0.00751981 -0.00359514 -0.00631908 -0.00851224 -0.0111311 -0.00751981 -0.0102845 -0.0111311 -0.0139164 -0.0102845 -0.013224 -0.00751981 -0.0102845 -0.00631908 -0.00926045 -0.0102845 -0.013224 -0.00926045 -0.0123868 -0.0149042 -0.0176003 -0.0144678 -0.0172597 -0.0176003 -0.0203929 -0.0172597 -0.0201515 -0.0144678 -0.0172597 -0.0139164 -0.0168377 -0.0172597 -0.0201515 -0.0168377 -0.0198633 -0.0203929 -0.0232516 -0.0201515 -0.0231117 -0.0232516 -0.0261453 -0.0231117 -0.0261083 -0.0201515 -0.0231117 -0.0198633 -0.0229605 -0.0231117 -0.0261083 -0.0229605 -0.0260957 -0.0139164 -0.0168377 -0.013224 -0.0163065 -0.0168377 -0.0198633 -0.0163065 -0.0194985 -0.013224 -0.0163065 -0.0123868 -0.0156642 -0.0163065 -0.0194985 -0.0156642 -0.0190574 -0.0198633 -0.0229605 -0.0194985 -0.0227658 -0.0229605 -0.0260957 -0.0227658 -0.0260735 -0.0194985 -0.0227658 -0.0190574 -0.0225304 -0.0227658 -0.0260735 -0.0225304 -0.0260464 0.00803512 0.00667693 0.0107613 0.00889798 0.00667693 0.00729597 0.00889798 0.00975154 0.0107613 0.00889798 0.013952 0.0114979 0.00889798 0.00975154 0.0114979 0.0126254 0.00729597 0.00662577 0.00975154 0.00898948 0.00662577 0.005789 0.00898948 0.00809818 0.00975154 0.00898948 0.0126254 0.0117553 0.00898948 0.00809818 0.0117553 0.0107991 0.013952 0.0114979 0.0176457 0.0145084 0.0114979 0.0126254 0.0145084 0.0159524 0.0176457 0.0145084 0.0218885 0.0179669 0.0145084 0.0159524 0.0179669 0.0197741 0.0126254 0.0117553 0.0159524 0.0149565 0.0117553 0.0107991 0.0149565 0.0139235 0.0159524 0.0149565 0.0197741 0.0186324 0.0149565 0.0139235 0.0186324 0.0175092 0.005789 0.0045512 0.00809818 0.006766 0.0045512 0.00297883 0.006766 0.00507698 0.00809818 0.006766 0.0107991 0.00935515 0.006766 0.00507698 0.00935515 0.00752824 0.00297883 0.00108065 0.00507698 0.00303866 0.00108065 -0.00111914 0.00303866 0.000677872 0.00507698 0.00303866 0.00752824 0.00532471 0.00303866 0.000677872 0.00532471 0.00277464 0.0107991 0.00935515 0.0139235 0.0123486 0.00935515 0.00752824 0.0123486 0.0103602 0.0139235 0.0123486 0.0175092 0.0157812 0.0123486 0.0103602 0.0157812 0.0136047 0.00752824 0.00532471 0.0103602 0.00796367 0.00532471 0.00277464 0.00796367 0.00519304 0.0103602 0.00796367 0.0136047 0.0109839 0.00796367 0.00519304 0.0109839 0.00795801 0.0218885 0.0179669 0.0267339 0.0219175 0.0179669 0.0197741 0.0219175 0.0241387 0.0267339 0.0219175 0.0322446 0.0264115 0.0219175 0.0241387 0.0264115 0.0291032 0.0197741 0.0186324 0.0241387 0.0228288 0.0186324 0.0175092 0.0228288 0.0215995 0.0241387 0.0228288 0.0291032 0.0275992 0.0228288 0.0215995 0.0275992 0.026245 0.0322446 0.0264115 0.0384944 0.0315097 0.0264115 0.0291032 0.0315097 0.0347342 0.0384944 0.0315097 0.0455705 0.0372839 0.0315097 0.0347342 0.0372839 0.0411104 0.0291032 0.0275992 0.0347342 0.0330063 0.0275992 0.026245 0.0330063 0.0315043 0.0347342 0.0330063 0.0411104 0.0391235 0.0330063 0.0315043 0.0391235 0.0374453 0.0175092 0.0157812 0.0215995 0.0196931 0.0157812 0.0136047 0.0196931 0.0172979 0.0215995 0.0196931 0.026245 0.0241305 0.0196931 0.0172979 0.0241305 0.021481 0.0136047 0.0109839 0.0172979 0.0144176 0.0109839 0.00795801 0.0144176 0.0110973 0.0172979 0.0144176 0.021481 0.0183006 0.0144176 0.0110973 0.0183006 0.0146416 0.026245 0.0241305 0.0315043 0.0291464 0.0241305 0.021481 0.0291464 0.0262009 0.0315043 0.0291464 0.0374453 0.0348013 0.0291464 0.0262009 0.0348013 0.0315095 0.021481 0.0183006 0.0262009 0.0226728 0.0183006 0.0146416 0.0226728 0.0186241 0.0262009 0.0226728 0.0315095 0.027578 0.0226728 0.0186241 0.027578 0.0230805 -0.00111914 -0.00359514 0.000677872 -0.00197771 -0.00359514 -0.00631908 -0.00197771 -0.00489746 0.000677872 -0.00197771 0.00277464 -9.16617e-05 -0.00197771 -0.00489746 -9.16617e-05 -0.00324067 -0.00631908 -0.00926045 -0.00489746 -0.0080485 -0.00926045 -0.0123868 -0.0080485 -0.0113961 -0.00489746 -0.0080485 -0.00324067 -0.00663664 -0.0080485 -0.0113961 -0.00663664 -0.0102421 0.00277464 -9.16617e-05 0.00519304 0.002082 -9.16617e-05 -0.00324067 0.002082 -0.00133249 0.00519304 0.002082 0.00795801 0.00456468 0.002082 -0.00133249 0.00456468 0.000845049 -0.00324067 -0.00663664 -0.00133249 -0.00501138 -0.00663664 -0.0102421 -0.00501138 -0.0089141 -0.00133249 -0.00501138 0.000845049 -0.00315797 -0.00501138 -0.0089141 -0.00315797 -0.00740018 -0.0123868 -0.0156642 -0.0113961 -0.014904 -0.0156642 -0.0190574 -0.014904 -0.018535 -0.0113961 -0.014904 -0.0102421 -0.0140184 -0.014904 -0.018535 -0.0140184 -0.0179257 -0.0190574 -0.0225304 -0.018535 -0.0222508 -0.0225304 -0.0260464 -0.0222508 -0.0260126 -0.018535 -0.0222508 -0.0179257 -0.0219235 -0.0222508 -0.0260126 -0.0219235 -0.0259708 -0.0102421 -0.0140184 -0.0089141 -0.012999 -0.0140184 -0.0179257 -0.012999 -0.0172236 -0.0089141 -0.012999 -0.00740018 -0.0118366 -0.012999 -0.0172236 -0.0118366 -0.016422 -0.0179257 -0.0219235 -0.0172236 -0.0215449 -0.0219235 -0.0259708 -0.0215449 -0.0259195 -0.0172236 -0.0215449 -0.016422 -0.0211106 -0.0215449 -0.0259195 -0.0211106 -0.0258568 0.00795801 0.00456468 0.0110973 0.00737995 0.00456468 0.000845049 0.00737995 0.00331148 0.0110973 0.00737995 0.0146416 0.0105533 0.00737995 0.00331148 0.0105533 0.00608769 0.000845049 -0.00315797 0.00331148 -0.0010605 -0.00315797 -0.00740018 -0.0010605 -0.00568771 0.00331148 -0.0010605 0.00608769 0.00129777 -0.0010605 -0.00568771 0.00129777 -0.00376355 0.0146416 0.0105533 0.0186241 0.0141118 0.0105533 0.00608769 0.0141118 0.00919536 0.0186241 0.0141118 0.0230805 0.0180838 0.0141118 0.00919536 0.0180838 0.0126562 0.00608769 0.00129777 0.00919536 0.0039338 0.00129777 -0.00376355 0.0039338 -0.0016147 0.00919536 0.0039338 0.0126562 0.00686402 0.0039338 -0.0016147 0.00686402 0.000771134 -0.00740018 -0.0118366 -0.00568771 -0.0105216 -0.0118366 -0.016422 -0.0105216 -0.0155139 -0.00568771 -0.0105216 -0.00376355 -0.00904391 -0.0105216 -0.0155139 -0.00904391 -0.0144918 -0.016422 -0.0211106 -0.0155139 -0.0206161 -0.0211106 -0.0258568 -0.0206161 -0.0257803 -0.0155139 -0.0206161 -0.0144918 -0.0200564 -0.0206161 -0.0257803 -0.0200564 -0.0256873 -0.00376355 -0.00904391 -0.0016147 -0.00739371 -0.00904391 -0.0144918 -0.00739371 -0.0133487 -0.0016147 -0.00739371 0.000771134 -0.00556186 -0.00739371 -0.0133487 -0.00556186 -0.0120776 -0.0144918 -0.0200564 -0.0133487 -0.0194264 -0.0200564 -0.0256873 -0.0194264 -0.0255747 -0.0133487 -0.0194264 -0.0120776 -0.0187209 -0.0194264 -0.0255747 -0.0187209 -0.0254389 -0.0296317 -0.0327827 -0.0240091 -0.026552 -0.0327827 -0.0359021 -0.026552 -0.0290696 -0.0240091 -0.026552 -0.0266224 -0.029451 -0.026552 -0.0290696 -0.029451 -0.0322514 -0.0359021 -0.0389554 -0.0290696 -0.031534 -0.0389554 -0.0419089 -0.031534 -0.0339177 -0.0290696 -0.031534 -0.0322514 -0.0349924 -0.031534 -0.0339177 -0.0349924 -0.0376438 -0.0266224 -0.029451 -0.0260349 -0.0288459 -0.029451 -0.0322514 -0.0288459 -0.031629 -0.0260349 -0.0288459 -0.0261453 -0.0290422 -0.0288459 -0.031629 -0.0290422 -0.0319107 -0.0322514 -0.0349924 -0.031629 -0.0343535 -0.0349924 -0.0376438 -0.0343535 -0.0369891 -0.031629 -0.0343535 -0.0319107 -0.0347192 -0.0343535 -0.0369891 -0.0347192 -0.0374366 -0.0419089 -0.0447294 -0.0339177 -0.0361941 -0.0447294 -0.0473855 -0.0361941 -0.0383376 -0.0339177 -0.0361941 -0.0376438 -0.0401758 -0.0361941 -0.0383376 -0.0401758 -0.04256 -0.0473855 -0.0498469 -0.0383376 -0.0403236 -0.0498469 -0.0520856 -0.0403236 -0.0421296 -0.0383376 -0.0403236 -0.04256 -0.0447694 -0.0403236 -0.0421296 -0.0447694 -0.0467785 -0.0376438 -0.0401758 -0.0369891 -0.0395064 -0.0401758 -0.04256 -0.0395064 -0.0418771 -0.0369891 -0.0395064 -0.0374366 -0.0400324 -0.0395064 -0.0418771 -0.0400324 -0.0424774 -0.04256 -0.0447694 -0.0418771 -0.044074 -0.0447694 -0.0467785 -0.044074 -0.046072 -0.0418771 -0.044074 -0.0424774 -0.0447439 -0.044074 -0.046072 -0.0447439 -0.0468056 -0.0261453 -0.0290422 -0.0261083 -0.0291085 -0.0290422 -0.0319107 -0.0291085 -0.0320798 -0.0261083 -0.0291085 -0.0260957 -0.0292352 -0.0291085 -0.0320798 -0.0292352 -0.032345 -0.0319107 -0.0347192 -0.0320798 -0.0349894 -0.0347192 -0.0374366 -0.0349894 -0.0378053 -0.0320798 -0.0349894 -0.032345 -0.035391 -0.0349894 -0.0378053 -0.035391 -0.0383398 -0.0260957 -0.0292352 -0.0260735 -0.0293861 -0.0292352 -0.032345 -0.0293861 -0.032668 -0.0260735 -0.0293861 -0.0260464 -0.0295681 -0.0293861 -0.032668 -0.0295681 -0.0330582 -0.032345 -0.035391 -0.032668 -0.0358838 -0.035391 -0.0383398 -0.0358838 -0.0389982 -0.032668 -0.0358838 -0.0330582 -0.0364792 -0.0358838 -0.0389982 -0.0364792 -0.0397941 -0.0374366 -0.0400324 -0.0378053 -0.0404961 -0.0400324 -0.0424774 -0.0404961 -0.0430314 -0.0378053 -0.0404961 -0.0383398 -0.0411586 -0.0404961 -0.0430314 -0.0411586 -0.0438156 -0.0424774 -0.0447439 -0.0430314 -0.0453821 -0.0447439 -0.0468056 -0.0453821 -0.0475212 -0.0430314 -0.0453821 -0.0438156 -0.0462804 -0.0453821 -0.0475212 -0.0462804 -0.0485242 -0.0383398 -0.0411586 -0.0389982 -0.0419767 -0.0411586 -0.0438156 -0.0419767 -0.0447857 -0.0389982 -0.0419767 -0.0397941 -0.0429661 -0.0419767 -0.0447857 -0.0429661 -0.0459596 -0.0438156 -0.0462804 -0.0447857 -0.0473928 -0.0462804 -0.0485242 -0.0473928 -0.0497677 -0.0447857 -0.0473928 -0.0459596 -0.04874 -0.0473928 -0.0497677 -0.04874 -0.0512746 -0.0520856 -0.0540758 -0.0421296 -0.0437343 -0.0540758 -0.0557928 -0.0437343 -0.0451212 -0.0421296 -0.0437343 -0.0467785 -0.0485642 -0.0437343 -0.0451212 -0.0485642 -0.0501069 -0.0557928 -0.0572251 -0.0451212 -0.0462601 -0.0572251 -0.0583164 -0.0462601 -0.0472129 -0.0451212 -0.0462601 -0.0501069 -0.0513775 -0.0462601 -0.0472129 -0.0513775 -0.0524262 -0.0467785 -0.0485642 -0.046072 -0.0478477 -0.0485642 -0.0501069 -0.0478477 -0.0493819 -0.046072 -0.0478477 -0.0468056 -0.0486384 -0.0478477 -0.0493819 -0.0486384 -0.0502221 -0.0501069 -0.0513775 -0.0493819 -0.0506447 -0.0513775 -0.0524262 -0.0506447 -0.0516895 -0.0493819 -0.0506447 -0.0502221 -0.0515264 -0.0506447 -0.0516895 -0.0515264 -0.0526043 -0.0583164 -0.0592176 -0.0472129 -0.0476021 -0.0592176 -0.0597498 -0.0476021 -0.0491479 -0.0472129 -0.0476021 -0.0524262 -0.0529015 -0.0476021 -0.0491479 -0.0529015 -0.0544433 -0.0597498 -0.0567001 -0.0491479 -0.0439886 -0.0567001 -0.0624443 -0.0439886 -0.0565003 -0.0491479 -0.0439886 -0.0544433 -0.0493358 -0.0439886 -0.0565003 -0.0493358 -0.0596999 -0.0524262 -0.0529015 -0.0516895 -0.0521494 -0.0529015 -0.0544433 -0.0521494 -0.053751 -0.0516895 -0.0521494 -0.0526043 -0.0530877 -0.0521494 -0.053751 -0.0530877 -0.0547097 -0.0544433 -0.0493358 -0.053751 -0.0485367 -0.0493358 -0.0596999 -0.0485367 -0.0600687 -0.053751 -0.0485367 -0.0547097 -0.0494376 -0.0485367 -0.0600687 -0.0494376 -0.0607629 -0.0468056 -0.0486384 -0.0475212 -0.0494235 -0.0486384 -0.0502221 -0.0494235 -0.0510676 -0.0475212 -0.0494235 -0.0485242 -0.0505204 -0.0494235 -0.0510676 -0.0505204 -0.0522466 -0.0502221 -0.0515264 -0.0510676 -0.0524222 -0.0515264 -0.0526043 -0.0524222 -0.0535409 -0.0510676 -0.0524222 -0.0522466 -0.0536694 -0.0524222 -0.0535409 -0.0536694 -0.0548434 -0.0485242 -0.0505204 -0.0497677 -0.0518818 -0.0505204 -0.0522466 -0.0518818 -0.0537108 -0.0497677 -0.0518818 -0.0512746 -0.0535325 -0.0518818 -0.0537108 -0.0535325 -0.0554873 -0.0522466 -0.0536694 -0.0537108 -0.0552195 -0.0536694 -0.0548434 -0.0552195 -0.056463 -0.0537108 -0.0552195 -0.0554873 -0.0571012 -0.0552195 -0.056463 -0.0571012 -0.0584302 -0.0526043 -0.0530877 -0.0535409 -0.0540471 -0.0530877 -0.0547097 -0.0540471 -0.0557095 -0.0535409 -0.0540471 -0.0548434 -0.0553818 -0.0540471 -0.0557095 -0.0553818 -0.0570961 -0.0547097 -0.0494376 -0.0557095 -0.0503291 -0.0494376 -0.0607629 -0.0503291 -0.0619489 -0.0557095 -0.0503291 -0.0570961 -0.0515867 -0.0503291 -0.0619489 -0.0515867 -0.0634741 -0.0548434 -0.0553818 -0.056463 -0.0570422 -0.0553818 -0.0570961 -0.0570422 -0.0588224 -0.056463 -0.0570422 -0.0584302 -0.0590598 -0.0570422 -0.0588224 -0.0590598 -0.0609206 -0.0570961 -0.0515867 -0.0588224 -0.0531498 -0.0515867 -0.0634741 -0.0531498 -0.0653954 -0.0588224 -0.0531498 -0.0609206 -0.0550517 -0.0531498 -0.0653954 -0.0550517 -0.0677272 -0.0260464 -0.0295681 -0.0260126 -0.0297812 -0.0295681 -0.0330582 -0.0297812 -0.0335172 -0.0260126 -0.0297812 -0.0259708 -0.0300262 -0.0297812 -0.0335172 -0.0300262 -0.0340479 -0.0330582 -0.0364792 -0.0335172 -0.0371809 -0.0364792 -0.0397941 -0.0371809 -0.0407331 -0.0335172 -0.0371809 -0.0340479 -0.0379941 -0.0371809 -0.0407331 -0.0379941 -0.0418229 -0.0259708 -0.0300262 -0.0259195 -0.0303037 -0.0300262 -0.0340479 -0.0303037 -0.0346534 -0.0259195 -0.0303037 -0.0258568 -0.0306143 -0.0303037 -0.0346534 -0.0306143 -0.0353367 -0.0340479 -0.0379941 -0.0346534 -0.0389243 -0.0379941 -0.0418229 -0.0389243 -0.0430717 -0.0346534 -0.0389243 -0.0353367 -0.0399771 -0.0389243 -0.0430717 -0.0399771 -0.0444881 -0.0397941 -0.0429661 -0.0407331 -0.0441347 -0.0429661 -0.0459596 -0.0441347 -0.0473474 -0.0407331 -0.0441347 -0.0418229 -0.0454926 -0.0441347 -0.0473474 -0.0454926 -0.0489621 -0.0459596 -0.04874 -0.0473474 -0.0503342 -0.04874 -0.0512746 -0.0503342 -0.0530594 -0.0473474 -0.0503342 -0.0489621 -0.0521911 -0.0503342 -0.0530594 -0.0521911 -0.0551406 -0.0418229 -0.0454926 -0.0430717 -0.047051 -0.0454926 -0.0489621 -0.047051 -0.0508178 -0.0430717 -0.047051 -0.0444881 -0.0488219 -0.047051 -0.0508178 -0.0488219 -0.0529303 -0.0489621 -0.0521911 -0.0508178 -0.0543282 -0.0521911 -0.0551406 -0.0543282 -0.0575393 -0.0508178 -0.0543282 -0.0529303 -0.0567652 -0.0543282 -0.0575393 -0.0567652 -0.0602792 -0.0258568 -0.0306143 -0.0257803 -0.0309578 -0.0306143 -0.0353367 -0.0309578 -0.0361002 -0.0257803 -0.0309578 -0.0256873 -0.0313341 -0.0309578 -0.0361002 -0.0313341 -0.0369462 -0.0353367 -0.0399771 -0.0361002 -0.041158 -0.0399771 -0.0444881 -0.041158 -0.0460808 -0.0361002 -0.041158 -0.0369462 -0.0424719 -0.041158 -0.0460808 -0.0424719 -0.0478581 -0.0256873 -0.0313341 -0.0255747 -0.0317418 -0.0313341 -0.0369462 -0.0317418 -0.0378755 -0.0255747 -0.0317418 -0.0254389 -0.0321788 -0.0317418 -0.0378755 -0.0321788 -0.038888 -0.0369462 -0.0424719 -0.0378755 -0.0439225 -0.0424719 -0.0478581 -0.0439225 -0.0498272 -0.0378755 -0.0439225 -0.038888 -0.0455119 -0.0439225 -0.0498272 -0.0455119 -0.0519934 -0.0444881 -0.0488219 -0.0460808 -0.0508175 -0.0488219 -0.0529303 -0.0508175 -0.0553159 -0.0460808 -0.0508175 -0.0478581 -0.0530502 -0.0508175 -0.0553159 -0.0530502 -0.0579917 -0.0529303 -0.0567652 -0.0553159 -0.0595231 -0.0567652 -0.0602792 -0.0595231 -0.0633864 -0.0553159 -0.0595231 -0.0579917 -0.0626245 -0.0595231 -0.0633864 -0.0626245 -0.0668895 -0.0478581 -0.0530502 -0.0498272 -0.0555316 -0.0530502 -0.0579917 -0.0555316 -0.0609748 -0.0498272 -0.0555316 -0.0519934 -0.0582713 -0.0555316 -0.0609748 -0.0582713 -0.0642804 -0.0579917 -0.0626245 -0.0609748 -0.0660926 -0.0626245 -0.0668895 -0.0660926 -0.0708189 -0.0609748 -0.0660926 -0.0642804 -0.0699502 -0.0660926 -0.0708189 -0.0699502 -0.0752061 -0.0512746 -0.0535325 -0.0530594 -0.0554894 -0.0535325 -0.0554873 -0.0554894 -0.057595 -0.0530594 -0.0554894 -0.0551406 -0.0577737 -0.0554894 -0.057595 -0.0577737 -0.0600579 -0.0554873 -0.0571012 -0.057595 -0.0593354 -0.0571012 -0.0584302 -0.