# vtk DataFile Version 3.0
#This file was generated by the deal.II library on 2026/1/5 at 14:19:31
ASCII
DATASET UNSTRUCTURED_GRID

POINTS 4096 double
0 0 0
0.03125 0 0
0 0.03125 0
0.03125 0.03125 0
0.03125 0 0
0.0625 0 0
0.03125 0.03125 0
0.0625 0.03125 0
0 0.03125 0
0.03125 0.03125 0
0 0.0625 0
0.03125 0.0625 0
0.03125 0.03125 0
0.0625 0.03125 0
0.03125 0.0625 0
0.0625 0.0625 0
0.0625 0 0
0.09375 0 0
0.0625 0.03125 0
0.09375 0.03125 0
0.09375 0 0
0.125 0 0
0.09375 0.03125 0
0.125 0.03125 0
0.0625 0.03125 0
0.09375 0.03125 0
0.0625 0.0625 0
0.09375 0.0625 0
0.09375 0.03125 0
0.125 0.03125 0
0.09375 0.0625 0
0.125 0.0625 0
0 0.0625 0
0.03125 0.0625 0
0 0.09375 0
0.03125 0.09375 0
0.03125 0.0625 0
0.0625 0.0625 0
0.03125 0.09375 0
0.0625 0.09375 0
0 0.09375 0
0.03125 0.09375 0
0 0.125 0
0.03125 0.125 0
0.03125 0.09375 0
0.0625 0.09375 0
0.03125 0.125 0
0.0625 0.125 0
0.0625 0.0625 0
0.09375 0.0625 0
0.0625 0.09375 0
0.09375 0.09375 0
0.09375 0.0625 0
0.125 0.0625 0
0.09375 0.09375 0
0.125 0.09375 0
0.0625 0.09375 0
0.09375 0.09375 0
0.0625 0.125 0
0.09375 0.125 0
0.09375 0.09375 0
0.125 0.09375 0
0.09375 0.125 0
0.125 0.125 0
0.125 0 0
0.15625 0 0
0.125 0.03125 0
0.15625 0.03125 0
0.15625 0 0
0.1875 0 0
0.15625 0.03125 0
0.1875 0.03125 0
0.125 0.03125 0
0.15625 0.03125 0
0.125 0.0625 0
0.15625 0.0625 0
0.15625 0.03125 0
0.1875 0.03125 0
0.15625 0.0625 0
0.1875 0.0625 0
0.1875 0 0
0.21875 0 0
0.1875 0.03125 0
0.21875 0.03125 0
0.21875 0 0
0.25 0 0
0.21875 0.03125 0
0.25 0.03125 0
0.1875 0.03125 0
0.21875 0.03125 0
0.1875 0.0625 0
0.21875 0.0625 0
0.21875 0.03125 0
0.25 0.03125 0
0.21875 0.0625 0
0.25 0.0625 0
0.125 0.0625 0
0.15625 0.0625 0
0.125 0.09375 0
0.15625 0.09375 0
0.15625 0.0625 0
0.1875 0.0625 0
0.15625 0.09375 0
0.1875 0.09375 0
0.125 0.09375 0
0.15625 0.09375 0
0.125 0.125 0
0.15625 0.125 0
0.15625 0.09375 0
0.1875 0.09375 0
0.15625 0.125 0
0.1875 0.125 0
0.1875 0.0625 0
0.21875 0.0625 0
0.1875 0.09375 0
0.21875 0.09375 0
0.21875 0.0625 0
0.25 0.0625 0
0.21875 0.09375 0
0.25 0.09375 0
0.1875 0.09375 0
0.21875 0.09375 0
0.1875 0.125 0
0.21875 0.125 0
0.21875 0.09375 0
0.25 0.09375 0
0.21875 0.125 0
0.25 0.125 0
0 0.125 0
0.03125 0.125 0
0 0.15625 0
0.03125 0.15625 0
0.03125 0.125 0
0.0625 0.125 0
0.03125 0.15625 0
0.0625 0.15625 0
0 0.15625 0
0.03125 0.15625 0
0 0.1875 0
0.03125 0.1875 0
0.03125 0.15625 0
0.0625 0.15625 0
0.03125 0.1875 0
0.0625 0.1875 0
0.0625 0.125 0
0.09375 0.125 0
0.0625 0.15625 0
0.09375 0.15625 0
0.09375 0.125 0
0.125 0.125 0
0.09375 0.15625 0
0.125 0.15625 0
0.0625 0.15625 0
0.09375 0.15625 0
0.0625 0.1875 0
0.09375 0.1875 0
0.09375 0.15625 0
0.125 0.15625 0
0.09375 0.1875 0
0.125 0.1875 0
0 0.1875 0
0.03125 0.1875 0
0 0.21875 0
0.03125 0.21875 0
0.03125 0.1875 0
0.0625 0.1875 0
0.03125 0.21875 0
0.0625 0.21875 0
0 0.21875 0
0.03125 0.21875 0
0 0.25 0
0.03125 0.25 0
0.03125 0.21875 0
0.0625 0.21875 0
0.03125 0.25 0
0.0625 0.25 0
0.0625 0.1875 0
0.09375 0.1875 0
0.0625 0.21875 0
0.09375 0.21875 0
0.09375 0.1875 0
0.125 0.1875 0
0.09375 0.21875 0
0.125 0.21875 0
0.0625 0.21875 0
0.09375 0.21875 0
0.0625 0.25 0
0.09375 0.25 0
0.09375 0.21875 0
0.125 0.21875 0
0.09375 0.25 0
0.125 0.25 0
0.125 0.125 0
0.15625 0.125 0
0.125 0.15625 0
0.15625 0.15625 0
0.15625 0.125 0
0.1875 0.125 0
0.15625 0.15625 0
0.1875 0.15625 0
0.125 0.15625 0
0.15625 0.15625 0
0.125 0.1875 0
0.15625 0.1875 0
0.15625 0.15625 0
0.1875 0.15625 0
0.15625 0.1875 0
0.1875 0.1875 0
0.1875 0.125 0
0.21875 0.125 0
0.1875 0.15625 0
0.21875 0.15625 0
0.21875 0.125 0
0.25 0.125 0
0.21875 0.15625 0
0.25 0.15625 0
0.1875 0.15625 0
0.21875 0.15625 0
0.1875 0.1875 0
0.21875 0.1875 0
0.21875 0.15625 0
0.25 0.15625 0
0.21875 0.1875 0
0.25 0.1875 0
0.125 0.1875 0
0.15625 0.1875 0
0.125 0.21875 0
0.15625 0.21875 0
0.15625 0.1875 0
0.1875 0.1875 0
0.15625 0.21875 0
0.1875 0.21875 0
0.125 0.21875 0
0.15625 0.21875 0
0.125 0.25 0
0.15625 0.25 0
0.15625 0.21875 0
0.1875 0.21875 0
0.15625 0.25 0
0.1875 0.25 0
0.1875 0.1875 0
0.21875 0.1875 0
0.1875 0.21875 0
0.21875 0.21875 0
0.21875 0.1875 0
0.25 0.1875 0
0.21875 0.21875 0
0.25 0.21875 0
0.1875 0.21875 0
0.21875 0.21875 0
0.1875 0.25 0
0.21875 0.25 0
0.21875 0.21875 0
0.25 0.21875 0
0.21875 0.25 0
0.25 0.25 0
0.25 0 0
0.28125 0 0
0.25 0.03125 0
0.28125 0.03125 0
0.28125 0 0
0.3125 0 0
0.28125 0.03125 0
0.3125 0.03125 0
0.25 0.03125 0
0.28125 0.03125 0
0.25 0.0625 0
0.28125 0.0625 0
0.28125 0.03125 0
0.3125 0.03125 0
0.28125 0.0625 0
0.3125 0.0625 0
0.3125 0 0
0.34375 0 0
0.3125 0.03125 0
0.34375 0.03125 0
0.34375 0 0
0.375 0 0
0.34375 0.03125 0
0.375 0.03125 0
0.3125 0.03125 0
0.34375 0.03125 0
0.3125 0.0625 0
0.34375 0.0625 0
0.34375 0.03125 0
0.375 0.03125 0
0.34375 0.0625 0
0.375 0.0625 0
0.25 0.0625 0
0.28125 0.0625 0
0.25 0.09375 0
0.28125 0.09375 0
0.28125 0.0625 0
0.3125 0.0625 0
0.28125 0.09375 0
0.3125 0.09375 0
0.25 0.09375 0
0.28125 0.09375 0
0.25 0.125 0
0.28125 0.125 0
0.28125 0.09375 0
0.3125 0.09375 0
0.28125 0.125 0
0.3125 0.125 0
0.3125 0.0625 0
0.34375 0.0625 0
0.3125 0.09375 0
0.34375 0.09375 0
0.34375 0.0625 0
0.375 0.0625 0
0.34375 0.09375 0
0.375 0.09375 0
0.3125 0.09375 0
0.34375 0.09375 0
0.3125 0.125 0
0.34375 0.125 0
0.34375 0.09375 0
0.375 0.09375 0
0.34375 0.125 0
0.375 0.125 0
0.375 0 0
0.40625 0 0
0.375 0.03125 0
0.40625 0.03125 0
0.40625 0 0
0.4375 0 0
0.40625 0.03125 0
0.4375 0.03125 0
0.375 0.03125 0
0.40625 0.03125 0
0.375 0.0625 0
0.40625 0.0625 0
0.40625 0.03125 0
0.4375 0.03125 0
0.40625 0.0625 0
0.4375 0.0625 0
0.4375 0 0
0.46875 0 0
0.4375 0.03125 0
0.46875 0.03125 0
0.46875 0 0
0.5 0 0
0.46875 0.03125 0
0.5 0.03125 0
0.4375 0.03125 0
0.46875 0.03125 0
0.4375 0.0625 0
0.46875 0.0625 0
0.46875 0.03125 0
0.5 0.03125 0
0.46875 0.0625 0
0.5 0.0625 0
0.375 0.0625 0
0.40625 0.0625 0
0.375 0.09375 0
0.40625 0.09375 0
0.40625 0.0625 0
0.4375 0.0625 0
0.40625 0.09375 0
0.4375 0.09375 0
0.375 0.09375 0
0.40625 0.09375 0
0.375 0.125 0
0.40625 0.125 0
0.40625 0.09375 0
0.4375 0.09375 0
0.40625 0.125 0
0.4375 0.125 0
0.4375 0.0625 0
0.46875 0.0625 0
0.4375 0.09375 0
0.46875 0.09375 0
0.46875 0.0625 0
0.5 0.0625 0
0.46875 0.09375 0
0.5 0.09375 0
0.4375 0.09375 0
0.46875 0.09375 0
0.4375 0.125 0
0.46875 0.125 0
0.46875 0.09375 0
0.5 0.09375 0
0.46875 0.125 0
0.5 0.125 0
0.25 0.125 0
0.28125 0.125 0
0.25 0.15625 0
0.28125 0.15625 0
0.28125 0.125 0
0.3125 0.125 0
0.28125 0.15625 0
0.3125 0.15625 0
0.25 0.15625 0
0.28125 0.15625 0
0.25 0.1875 0
0.28125 0.1875 0
0.28125 0.15625 0
0.3125 0.15625 0
0.28125 0.1875 0
0.3125 0.1875 0
0.3125 0.125 0
0.34375 0.125 0
0.3125 0.15625 0
0.34375 0.15625 0
0.34375 0.125 0
0.375 0.125 0
0.34375 0.15625 0
0.375 0.15625 0
0.3125 0.15625 0
0.34375 0.15625 0
0.3125 0.1875 0
0.34375 0.1875 0
0.34375 0.15625 0
0.375 0.15625 0
0.34375 0.1875 0
0.375 0.1875 0
0.25 0.1875 0
0.28125 0.1875 0
0.25 0.21875 0
0.28125 0.21875 0
0.28125 0.1875 0
0.3125 0.1875 0
0.28125 0.21875 0
0.3125 0.21875 0
0.25 0.21875 0
0.28125 0.21875 0
0.25 0.25 0
0.28125 0.25 0
0.28125 0.21875 0
0.3125 0.21875 0
0.28125 0.25 0
0.3125 0.25 0
0.3125 0.1875 0
0.34375 0.1875 0
0.3125 0.21875 0
0.34375 0.21875 0
0.34375 0.1875 0
0.375 0.1875 0
0.34375 0.21875 0
0.375 0.21875 0
0.3125 0.21875 0
0.34375 0.21875 0
0.3125 0.25 0
0.34375 0.25 0
0.34375 0.21875 0
0.375 0.21875 0
0.34375 0.25 0
0.375 0.25 0
0.375 0.125 0
0.40625 0.125 0
0.375 0.15625 0
0.40625 0.15625 0
0.40625 0.125 0
0.4375 0.125 0
0.40625 0.15625 0
0.4375 0.15625 0
0.375 0.15625 0
0.40625 0.15625 0
0.375 0.1875 0
0.40625 0.1875 0
0.40625 0.15625 0
0.4375 0.15625 0
0.40625 0.1875 0
0.4375 0.1875 0
0.4375 0.125 0
0.46875 0.125 0
0.4375 0.15625 0
0.46875 0.15625 0
0.46875 0.125 0
0.5 0.125 0
0.46875 0.15625 0
0.5 0.15625 0
0.4375 0.15625 0
0.46875 0.15625 0
0.4375 0.1875 0
0.46875 0.1875 0
0.46875 0.15625 0
0.5 0.15625 0
0.46875 0.1875 0
0.5 0.1875 0
0.375 0.1875 0
0.40625 0.1875 0
0.375 0.21875 0
0.40625 0.21875 0
0.40625 0.1875 0
0.4375 0.1875 0
0.40625 0.21875 0
0.4375 0.21875 0
0.375 0.21875 0
0.40625 0.21875 0
0.375 0.25 0
0.40625 0.25 0
0.40625 0.21875 0
0.4375 0.21875 0
0.40625 0.25 0
0.4375 0.25 0
0.4375 0.1875 0
0.46875 0.1875 0
0.4375 0.21875 0
0.46875 0.21875 0
0.46875 0.1875 0
0.5 0.1875 0
0.46875 0.21875 0
0.5 0.21875 0
0.4375 0.21875 0
0.46875 0.21875 0
0.4375 0.25 0
0.46875 0.25 0
0.46875 0.21875 0
0.5 0.21875 0
0.46875 0.25 0
0.5 0.25 0
0 0.25 0
0.03125 0.25 0
0 0.28125 0
0.03125 0.28125 0
0.03125 0.25 0
0.0625 0.25 0
0.03125 0.28125 0
0.0625 0.28125 0
0 0.28125 0
0.03125 0.28125 0
0 0.3125 0
0.03125 0.3125 0
0.03125 0.28125 0
0.0625 0.28125 0
0.03125 0.3125 0
0.0625 0.3125 0
0.0625 0.25 0
0.09375 0.25 0
0.0625 0.28125 0
0.09375 0.28125 0
0.09375 0.25 0
0.125 0.25 0
0.09375 0.28125 0
0.125 0.28125 0
0.0625 0.28125 0
0.09375 0.28125 0
0.0625 0.3125 0
0.09375 0.3125 0
0.09375 0.28125 0
0.125 0.28125 0
0.09375 0.3125 0
0.125 0.3125 0
0 0.3125 0
0.03125 0.3125 0
0 0.34375 0
0.03125 0.34375 0
0.03125 0.3125 0
0.0625 0.3125 0
0.03125 0.34375 0
0.0625 0.34375 0
0 0.34375 0
0.03125 0.34375 0
0 0.375 0
0.03125 0.375 0
0.03125 0.34375 0
0.0625 0.34375 0
0.03125 0.375 0
0.0625 0.375 0
0.0625 0.3125 0
0.09375 0.3125 0
0.0625 0.34375 0
0.09375 0.34375 0
0.09375 0.3125 0
0.125 0.3125 0
0.09375 0.34375 0
0.125 0.34375 0
0.0625 0.34375 0
0.09375 0.34375 0
0.0625 0.375 0
0.09375 0.375 0
0.09375 0.34375 0
0.125 0.34375 0
0.09375 0.375 0
0.125 0.375 0
0.125 0.25 0
0.15625 0.25 0
0.125 0.28125 0
0.15625 0.28125 0
0.15625 0.25 0
0.1875 0.25 0
0.15625 0.28125 0
0.1875 0.28125 0
0.125 0.28125 0
0.15625 0.28125 0
0.125 0.3125 0
0.15625 0.3125 0
0.15625 0.28125 0
0.1875 0.28125 0
0.15625 0.3125 0
0.1875 0.3125 0
0.1875 0.25 0
0.21875 0.25 0
0.1875 0.28125 0
0.21875 0.28125 0
0.21875 0.25 0
0.25 0.25 0
0.21875 0.28125 0
0.25 0.28125 0
0.1875 0.28125 0
0.21875 0.28125 0
0.1875 0.3125 0
0.21875 0.3125 0
0.21875 0.28125 0
0.25 0.28125 0
0.21875 0.3125 0
0.25 0.3125 0
0.125 0.3125 0
0.15625 0.3125 0
0.125 0.34375 0
0.15625 0.34375 0
0.15625 0.3125 0
0.1875 0.3125 0
0.15625 0.34375 0
0.1875 0.34375 0
0.125 0.34375 0
[...]
POINT_DATA 4096
SCALARS p double 1
LOOKUP_TABLE default
-7.08254e-08 0.000115859 -0.000116324 2.43846e-08 0.000115859 0.000344482 2.43846e-08 0.000110871 -0.000116324 2.43846e-08 -0.000347651 -0.000110314 2.43846e-08 0.000110871 -0.000110314 2.8405e-06 0.000344482 0.00048566 0.000110871 0.000169781 0.00048566 0.000463694 0.000169781 0.000120946 0.000110871 0.000169781 2.8405e-06 4.89364e-05 0.000169781 0.000120946 4.89364e-05 -2.31939e-05 -0.000347651 -0.000110314 -0.000497264 -0.000168953 -0.000110314 2.8405e-06 -0.000168953 -3.58326e-05 -0.000497264 -0.000168953 -0.000489165 -0.000118228 -0.000168953 -3.58326e-05 -0.000118228 4.90694e-05 2.8405e-06 4.89364e-05 -3.58326e-05 1.40695e-05 4.89364e-05 -2.31939e-05 1.40695e-05 -6.17032e-05 -3.58326e-05 1.40695e-05 4.90694e-05 0.000110947 1.40695e-05 -6.17032e-05 0.000110947 3.8048e-05 0.000463694 0.000261822 0.000120946 -5.24779e-05 0.000261822 -0.000113437 -5.24779e-05 -0.000353847 0.000120946 -5.24779e-05 -2.31939e-05 -0.000222111 -5.24779e-05 -0.000353847 -0.000222111 -0.000553108 -0.000113437 -0.000650103 -0.000353847 -0.000779118 -0.000650103 -0.0013358 -0.000779118 -0.00132145 -0.000353847 -0.000779118 -0.000553108 -0.00101421 -0.000779118 -0.00132145 -0.00101421 -0.00160006 -2.31939e-05 -0.000222111 -6.17032e-05 -0.000260785 -0.000222111 -0.000553108 -0.000260785 -0.000586318 -6.17032e-05 -0.000260785 3.8048e-05 -0.000162874 -0.000260785 -0.000586318 -0.000162874 -0.00049197 -0.000553108 -0.00101421 -0.000586318 -0.0010365 -0.00101421 -0.00160006 -0.0010365 -0.00160698 -0.000586318 -0.0010365 -0.00049197 -0.000946514 -0.0010365 -0.00160698 -0.000946514 -0.00152204 -0.000489165 -0.000118228 -0.000301752 6.33792e-05 -0.000118228 4.90694e-05 6.33792e-05 0.000272 -0.000301752 6.33792e-05 6.71511e-05 0.000386567 6.33792e-05 0.000272 0.000386567 0.000646598 4.90694e-05 0.000110947 0.000272 0.000343535 0.000110947 3.8048e-05 0.000343535 0.000275975 0.000272 0.000343535 0.000646598 0.000723335 0.000343535 0.000275975 0.000723335 0.000660626 6.71511e-05 0.000386567 0.000617756 0.000857403 0.000386567 0.000646598 0.000857403 0.00118209 0.000617756 0.000857403 0.00135347 0.00148211 0.000857403 0.00118209 0.00148211 0.00188753 0.000646598 0.000723335 0.00118209 0.00125954 0.000723335 0.000660626 0.00125954 0.00120025 0.00118209 0.00125954 0.00188753 0.00196188 0.00125954 0.00120025 0.00196188 0.00190443 3.8048e-05 -0.000162874 0.000275975 7.39139e-05 -0.000162874 -0.00049197 7.39139e-05 -0.000259981 0.000275975 7.39139e-05 0.000660626 0.000455281 7.39139e-05 -0.000259981 0.000455281 0.000112678 -0.00049197 -0.000946514 -0.000259981 -0.000722145 -0.000946514 -0.00152204 -0.000722145 -0.00130769 -0.000259981 -0.000722145 0.000112678 -0.000363123 -0.000722145 -0.00130769 -0.000363123 -0.00096669 0.000660626 0.000455281 0.00120025 0.000988559 0.000455281 0.000112678 0.000988559 0.000632777 0.00120025 0.000988559 0.00190443 0.00168277 0.000988559 0.000632777 0.00168277 0.00130873 0.000112678 -0.000363123 0.000632777 0.000137159 -0.000363123 -0.00096669 0.000137159 -0.000492319 0.000632777 0.000137159 0.00130873 0.000786553 0.000137159 -0.000492319 0.000786553 0.000122749 -0.0013358 -0.00215867 -0.00132145 -0.00197273 -0.00215867 -0.00310677 -0.00197273 -0.00272393 -0.00132145 -0.00197273 -0.00160006 -0.0023031 -0.00197273 -0.00272393 -0.0023031 -0.00311418 -0.00310677 -0.0041675 -0.00272393 -0.00356515 -0.0041675 -0.0053272 -0.00356515 -0.0044855 -0.00272393 -0.00356515 -0.00311418 -0.00402291 -0.00356515 -0.0044855 -0.00402291 -0.00501761 -0.00160006 -0.0023031 -0.00160698 -0.00229116 -0.0023031 -0.00311418 -0.00229116 -0.00308072 -0.00160698 -0.00229116 -0.00152204 -0.0022122 -0.00229116 -0.00308072 -0.0022122 -0.00300888 -0.00311418 -0.00402291 -0.00308072 -0.00396586 -0.00402291 -0.00501761 -0.00396586 -0.00493539 -0.00308072 -0.00396586 -0.00300888 -0.00390248 -0.00396586 -0.00493539 -0.00390248 -0.00488192 -0.0053272 -0.006571 -0.0044855 -0.00547308 -0.006571 -0.00788277 -0.00547308 -0.00651499 -0.0044855 -0.00547308 -0.00501761 -0.00608544 -0.00547308 -0.00651499 -0.00608544 -0.0072124 -0.00788277 -0.00924521 -0.00651499 -0.00759736 -0.00924521 -0.01064 -0.00759736 -0.00870551 -0.00651499 -0.00759736 -0.0072124 -0.00838347 -0.00759736 -0.00870551 -0.00838347 -0.00958267 -0.00501761 -0.00608544 -0.00493539 -0.00597693 -0.00608544 -0.0072124 -0.00597693 -0.00707688 -0.00493539 -0.00597693 -0.00488192 -0.00593484 -0.00597693 -0.00707688 -0.00593484 -0.00704764 -0.0072124 -0.00838347 -0.00707688 -0.0082206 -0.00838347 -0.00958267 -0.0082206 -0.0093925 -0.00707688 -0.0082206 -0.00704764 -0.00820559 -0.0082206 -0.0093925 -0.00820559 -0.00939296 -0.00152204 -0.0022122 -0.00130769 -0.00201014 -0.0022122 -0.00300888 -0.00201014 -0.00282143 -0.00130769 -0.00201014 -0.00096669 -0.00169127 -0.00201014 -0.00282143 -0.00169127 -0.00252864 -0.00300888 -0.00390248 -0.00282143 -0.00373196 -0.00390248 -0.00488192 -0.00373196 -0.00473068 -0.00282143 -0.00373196 -0.00252864 -0.00346904 -0.00373196 -0.00473068 -0.00346904 -0.00450127 -0.00096669 -0.00169127 -0.000492319 -0.00124857 -0.00169127 -0.00252864 -0.00124857 -0.00212307 -0.000492319 -0.00124857 0.000122749 -0.000675187 -0.00124857 -0.00212307 -0.000675187 -0.00159832 -0.00252864 -0.00346904 -0.00212307 -0.00310577 -0.00346904 -0.00450127 -0.00310577 -0.00418518 -0.00212307 -0.00310577 -0.00159832 -0.00263625 -0.00310577 -0.00418518 -0.00263625 -0.00377706 -0.00488192 -0.00593484 -0.00473068 -0.00580517 -0.00593484 -0.00704764 -0.00580517 -0.0069417 -0.00473068 -0.00580517 -0.00450127 -0.00561269 -0.00580517 -0.0069417 -0.00561269 -0.00678933 -0.00704764 -0.00820559 -0.0069417 -0.00812542 -0.00820559 -0.00939296 -0.00812542 -0.00934033 -0.0069417 -0.00812542 -0.00678933 -0.00801603 -0.00812542 -0.00934033 -0.00801603 -0.00927638 -0.00450127 -0.00561269 -0.00418518 -0.00534836 -0.00561269 -0.00678933 -0.00534836 -0.00658095 -0.00418518 -0.00534836 -0.00377706 -0.00500738 -0.00534836 -0.00658095 -0.00500738 -0.00631236 -0.00678933 -0.00801603 -0.00658095 -0.00786732 -0.00801603 -0.00927638 -0.00786732 -0.00919052 -0.00658095 -0.00786732 -0.00631236 -0.00767579 -0.00786732 -0.00919052 -0.00767579 -0.00908007 0.00135347 0.00148211 0.00228211 0.00226889 0.00148211 0.00188753 0.00226889 0.00277338 0.00228211 0.00226889 0.00341563 0.00322858 0.00226889 0.00277338 0.00322858 0.00385252 0.00188753 0.00196188 0.00277338 0.00284142 0.00196188 0.00190443 0.00284142 0.00278441 0.00277338 0.00284142 0.00385252 0.00391141 0.00284142 0.00278441 0.00391141 0.00385361 0.00341563 0.00322858 0.00476986 0.00437492 0.00322858 0.00385252 0.00437492 0.0051408 0.00476986 0.00437492 0.00636433 0.00572481 0.00437492 0.0051408 0.00572481 0.00665748 0.00385252 0.00391141 0.0051408 0.00518788 0.00391141 0.00385361 0.00518788 0.0051282 0.0051408 0.00518788 0.00665748 0.00669009 0.00518788 0.0051282 0.00669009 0.00662745 0.00190443 0.00168277 0.00278441 0.00254893 0.00168277 0.00130873 0.00254893 0.00215119 0.00278441 0.00254893 0.00385361 0.00360031 0.00254893 0.00215119 0.00360031 0.00317307 0.00130873 0.000786553 0.00215119 0.00159527 0.000786553 0.000122749 0.00159527 0.000888316 0.00215119 0.00159527 0.00317307 0.0025758 0.00159527 0.000888316 0.0025758 0.00181639 0.00385361 0.00360031 0.0051282 0.00485286 0.00360031 0.00317307 0.00485286 0.00438994 0.0051282 0.00485286 0.00662745 0.00632555 0.00485286 0.00438994 0.00632555 0.00582022 0.00317307 0.0025758 0.00438994 0.00374318 0.0025758 0.00181639 0.00374318 0.00292142 0.00438994 0.00374318 0.00582022 0.00511517 0.00374318 0.00292142 0.00511517 0.00422043 0.00636433 0.00572481 0.00822249 0.00729857 0.00572481 0.00665748 0.00729857 0.00842572 0.00822249 0.00729857 0.0103722 0.00912052 0.00729857 0.00842572 0.00912052 0.0104733 0.00665748 0.00669009 0.00842572 0.00844112 0.00669009 0.00662745 0.00844112 0.00837437 0.00842572 0.00844112 0.0104733 0.0104685 0.00844112 0.00837437 0.0104685 0.0103963 0.0103722 0.00912052 0.0128466 0.0112197 0.00912052 0.0104733 0.0112197 0.0128333 0.0128466 0.0112197 0.0156847 0.013631 0.0112197 0.0128333 0.013631 0.0155459 0.0104733 0.0104685 0.0128333 0.0128053 0.0104685 0.0103963 0.0128053 0.0127256 0.0128333 0.0128053 0.0155459 0.015491 0.0128053 0.0127256 0.015491 0.0154012 0.00662745 0.00632555 0.00837437 0.00804084 0.00632555 0.00582022 0.00804084 0.00748562 0.00837437 0.00804084 0.0103963 0.0100252 0.00804084 0.00748562 0.0100252 0.00941162 0.00582022 0.00511517 0.00748562 0.0067126 0.00511517 0.00422043 0.0067126 0.0057333 0.00748562 0.0067126 0.00941162 0.0085597 0.0067126 0.0057333 0.0085597 0.00748298 0.0103963 0.0100252 0.0127256 0.0123101 0.0100252 0.00941162 0.0123101 0.0116279 0.0127256 0.0123101 0.0154012 0.0149323 0.0123101 0.0116279 0.0149323 0.0141694 0.00941162 0.0085597 0.0116279 0.0106845 0.0085597 0.00748298 0.0106845 0.00949575 0.0116279 0.0106845 0.0141694 0.0131193 0.0106845 0.00949575 0.0131193 0.0118015 0.000122749 -0.000675187 0.000888316 3.82915e-05 -0.000675187 -0.00159832 3.82915e-05 -0.000945409 0.000888316 3.82915e-05 0.00181639 0.000903356 3.82915e-05 -0.000945409 0.000903356 -0.000153337 -0.00159832 -0.00263625 -0.000945409 -0.00205189 -0.00263625 -0.00377706 -0.00205189 -0.00326874 -0.000945409 -0.00205189 -0.000153337 -0.00134222 -0.00205189 -0.00326874 -0.00134222 -0.0026503 0.00181639 0.000903356 0.00292142 0.00193383 0.000903356 -0.000153337 0.00193383 0.000791103 0.00292142 0.00193383 0.00422043 0.00314603 0.00193383 0.000791103 0.00314603 0.00190347 -0.000153337 -0.00134222 0.000791103 -0.000494646 -0.00134222 -0.0026503 -0.000494646 -0.00190977 0.000791103 -0.000494646 0.00190347 0.000505669 -0.000494646 -0.00190977 0.000505669 -0.00103299 -0.00377706 -0.00500738 -0.00326874 -0.00458207 -0.00500738 -0.00631236 -0.00458207 -0.00597644 -0.00326874 -0.00458207 -0.0026503 -0.00406309 -0.00458207 -0.00597644 -0.00406309 -0.00556448 -0.00631236 -0.00767579 -0.00597644 -0.00743497 -0.00767579 -0.00908007 -0.00743497 -0.0089393 -0.00597644 -0.00743497 -0.00556448 -0.00713688 -0.00743497 -0.0089393 -0.00713688 -0.0087611 -0.0026503 -0.00406309 -0.00190977 -0.00343908 -0.00406309 -0.00556448 -0.00343908 -0.00506583 -0.00190977 -0.00343908 -0.00103299 -0.0026966 -0.00343908 -0.00506583 -0.0026966 -0.00446774 -0.00556448 -0.00713688 -0.00506583 -0.00677166 -0.00713688 -0.0087611 -0.00677166 -0.00853654 -0.00506583 -0.00677166 -0.00446774 -0.00632736 -0.00677166 -0.00853654 -0.00632736 -0.00825461 0.00422043 0.00314603 0.0057333 0.00455884 0.00314603 0.00190347 0.00455884 0.00320174 0.0057333 0.00455884 0.00748298 0.00619397 0.00455884 0.00320174 0.00619397 0.00470647 0.00190347 0.000505669 0.00320174 0.00167586 0.000505669 -0.00103299 0.00167586 -3.59576e-06 0.00320174 0.00167586 0.00470647 0.00303546 0.00167586 -3.59576e-06 0.00303546 0.00119708 0.00748298 0.00619397 0.00949575 0.00807604 0.00619397 0.00470647 0.00807604 0.00644083 0.00949575 0.00807604 0.0118015 0.0102328 0.00807604 0.00644083 0.0102328 0.00843056 0.00470647 0.00303546 0.00644083 0.0046064 0.00303546 0.00119708 0.0046064 0.00259 0.00644083 0.0046064 0.00843056 0.00641288 0.0046064 0.00259 0.00641288 0.00419822 -0.00103299 -0.0026966 -3.59576e-06 -0.00181999 -0.0026966 -0.00446774 -0.00181999 -0.00375525 -3.59576e-06 -0.00181999 0.00119708 -0.000791284 -0.00181999 -0.00375525 -0.000791284 -0.00291098 -0.00446774 -0.00632736 -0.00375525 -0.0057897 -0.00632736 -0.00825461 -0.0057897 -0.00790188 -0.00375525 -0.0057897 -0.00291098 -0.0051419 -0.0057897 -0.00790188 -0.0051419 -0.00746217 0.00119708 -0.000791284 0.00259 0.000409771 -0.000791284 -0.00291098 0.000409771 -0.00191517 0.00259 0.000409771 0.00419822 0.00180552 0.000409771 -0.00191517 0.00180552 -0.000745759 -0.00291098 -0.0051419 -0.00191517 -0.0043645 -0.0051419 -0.00746217 -0.0043645 -0.00691634 -0.00191517 -0.0043645 -0.000745759 -0.00343542 -0.0043645 -0.00691634 -0.00343542 -0.00624206 -0.01064 -0.0120478 -0.00870551 -0.009824 -0.0120478 -0.0134487 -0.009824 -0.0109368 -0.00870551 -0.009824 -0.00958267 -0.0107933 -0.009824 -0.0109368 -0.0107933 -0.0119978 -0.0134487 -0.0148223 -0.0109368 -0.0120277 -0.0148223 -0.0161479 -0.0120277 -0.01308 -0.0109368 -0.0120277 -0.0119978 -0.0131786 -0.0120277 -0.01308 -0.0131786 -0.0143175 -0.00958267 -0.0107933 -0.0093925 -0.0105762 -0.0107933 -0.0119978 -0.0105762 -0.0117545 -0.0093925 -0.0105762 -0.00939296 -0.0105932 -0.0105762 -0.0117545 -0.0105932 -0.0117889 -0.0119978 -0.0131786 -0.0117545 -0.0129101 -0.0131786 -0.0143175 -0.0129101 -0.0140252 -0.0117545 -0.0129101 -0.0117889 -0.0129623 -0.0129101 -0.0140252 -0.0129623 -0.0140954 -0.0161479 -0.0174048 -0.01308 -0.0140772 -0.0174048 -0.0185728 -0.0140772 -0.0150032 -0.01308 -0.0140772 -0.0143175 -0.0153967 -0.0140772 -0.0150032 -0.0153967 -0.0163987 -0.0185728 -0.0196323 -0.0150032 -0.0158425 -0.0196323 -0.0205644 -0.0158425 -0.01658 -0.0150032 -0.0158425 -0.0163987 -0.0173065 -0.0158425 -0.01658 -0.0173065 -0.0181043 -0.0143175 -0.0153967 -0.0140252 -0.0150822 -0.0153967 -0.0163987 -0.0150822 -0.0160637 -0.0140252 -0.0150822 -0.0140954 -0.0151701 -0.0150822 -0.0160637 -0.0151701 -0.0161688 -0.0163987 -0.0173065 -0.0160637 -0.0169532 -0.0173065 -0.0181043 -0.0169532 -0.0177353 -0.0160637 -0.0169532 -0.0161688 -0.0170745 -0.0169532 -0.0177353 -0.0170745 -0.0178713 -0.00939296 -0.0105932 -0.00934033 -0.0105695 -0.0105932 -0.0117889 -0.0105695 -0.0117954 -0.00934033 -0.0105695 -0.00927638 -0.010553 -0.0105695 -0.0117954 -0.010553 -0.0118276 -0.0117889 -0.0129623 -0.0117954 -0.0129996 -0.0129623 -0.0140954 -0.0129996 -0.0141635 -0.0117954 -0.0129996 -0.0118276 -0.0130813 -0.0129996 -0.0141635 -0.0130813 -0.0142946 -0.00927638 -0.010553 -0.00919052 -0.0105325 -0.010553 -0.0118276 -0.0105325 -0.0118743 -0.00919052 -0.0105325 -0.00908007 -0.0105064 -0.0105325 -0.0118743 -0.0105064 -0.0119346 -0.0118276 -0.0130813 -0.0118743 -0.0131959 -0.0130813 -0.0142946 -0.0131959 -0.0144768 -0.0118743 -0.0131959 -0.0119346 -0.0133438 -0.0131959 -0.0144768 -0.0133438 -0.0147122 -0.0140954 -0.0151701 -0.0141635 -0.0152686 -0.0151701 -0.0161688 -0.0152686 -0.0162964 -0.0141635 -0.0152686 -0.0142946 -0.0154479 -0.0152686 -0.0162964 -0.0154479 -0.0165218 -0.0161688 -0.0170745 -0.0162964 -0.0172293 -0.0170745 -0.0178713 -0.0172293 -0.0180508 -0.0162964 -0.0172293 -0.0165218 -0.0174977 -0.0172293 -0.0180508 -0.0174977 -0.0183579 -0.0142946 -0.0154479 -0.0144768 -0.0156963 -0.0154479 -0.0165218 -0.0156963 -0.0168336 -0.0144768 -0.0156963 -0.0147122 -0.0160172 -0.0156963 -0.0168336 -0.0160172 -0.0172364 -0.0165218 -0.0174977 -0.0168336 -0.0178684 -0.0174977 -0.0183579 -0.0178684 -0.0187815 -0.0168336 -0.0178684 -0.0172364 -0.0183477 -0.0178684 -0.0187815 -0.0183477 -0.0193297 -0.0205644 -0.021351 -0.01658 -0.017202 -0.021351 -0.0219744 -0.017202 -0.0176966 -0.01658 -0.017202 -0.0181043 -0.0187777 -0.017202 -0.0176966 -0.0187777 -0.0193147 -0.0219744 -0.0224197 -0.0176966 -0.01805 -0.0224197 -0.0226619 -0.01805 -0.0182762 -0.0176966 -0.01805 -0.0193147 -0.0197037 -0.01805 -0.0182762 -0.0197037 -0.0199559 -0.0181043 -0.0187777 -0.0177353 -0.0183961 -0.0187777 -0.0193147 -0.0183961 -0.0189244 -0.0177353 -0.0183961 -0.0178713 -0.0185451 -0.0183961 -0.0189244 -0.0185451 -0.0190845 -0.0193147 -0.0197037 -0.0189244 -0.0193091 -0.0197037 -0.0199559 -0.0193091 -0.0195626 -0.0189244 -0.0193091 -0.0190845 -0.0194778 -0.0193091 -0.0195626 -0.0194778 -0.0197359 -0.0226619 -0.0227476 -0.0182762 -0.0182769 -0.0227476 -0.0226162 -0.0182769 -0.0185996 -0.0182762 -0.0182769 -0.0199559 -0.0199893 -0.0182769 -0.0185996 -0.0199893 -0.0203009 -0.0226162 -0.0213045 -0.0185996 -0.0166553 -0.0213045 -0.0232349 -0.0166553 -0.0210614 -0.0185996 -0.0166553 -0.0203009 -0.018375 -0.0166553 -0.0210614 -0.018375 -0.0219021 -0.0199559 -0.0199893 -0.0195626 -0.0195959 -0.0199893 -0.0203009 -0.0195959 -0.01992 -0.0195626 -0.0195959 -0.0197359 -0.0197686 -0.0195959 -0.01992 -0.0197686 -0.020077 -0.0203009 -0.018375 -0.01992 -0.0179463 -0.018375 -0.0219021 -0.0179463 -0.0217522 -0.01992 -0.0179463 -0.020077 -0.0180739 -0.0179463 -0.0217522 -0.0180739 -0.0217302 -0.0178713 -0.0185451 -0.0180508 -0.0187459 -0.0185451 -0.0190845 -0.0187459 -0.0193025 -0.0180508 -0.0187459 -0.0183579 -0.0190861 -0.0187459 -0.0193025 -0.0190861 -0.0196692 -0.0190845 -0.0194778 -0.0193025 -0.0197078 -0.0194778 -0.0197359 -0.0197078 -0.0199718 -0.0193025 -0.0197078 -0.0196692 -0.0200931 -0.0197078 -0.0199718 -0.0200931 -0.0203668 -0.0183579 -0.0190861 -0.0187815 -0.0195553 -0.0190861 -0.0196692 -0.0195553 -0.0201748 -0.0187815 -0.0195553 -0.0193297 -0.0201628 -0.0195553 -0.0201748 -0.0201628 -0.0208302 -0.0196692 -0.0200931 -0.0201748 -0.0206246 -0.0200931 -0.0203668 -0.0206246 -0.0209131 -0.0201748 -0.0206246 -0.0208302 -0.0213146 -0.0206246 -0.0209131 -0.0213146 -0.0216238 -0.0197359 -0.0197686 -0.0199718 -0.0200008 -0.0197686 -0.020077 -0.0200008 -0.0202997 -0.0199718 -0.0200008 -0.0203668 -0.0203938 -0.0200008 -0.0202997 -0.0203938 -0.0206876 -0.020077 -0.0180739 -0.0202997 -0.0182497 -0.0180739 -0.0217302 -0.0182497 -0.0219338 -0.0202997 -0.0182497 -0.0206876 -0.0185841 -0.0182497 -0.0219338 -0.0185841 -0.0223097 -0.0203668 -0.0203938 -0.0209131 -0.0209406 -0.0203938 -0.0206876 -0.0209406 -0.0212342 -0.0209131 -0.0209406 -0.0216238 -0.0216546 -0.0209406 -0.0212342 -0.0216546 -0.0219522 -0.0206876 -0.0185841 -0.0212342 -0.019063 -0.0185841 -0.0223097 -0.019063 -0.0228678 -0.0212342 -0.019063 -0.0219522 -0.0196968 -0.019063 -0.0228678 -0.0196968 -0.0236098 -0.00908007 -0.0105064 -0.0089393 -0.0104696 -0.0105064 -0.0119346 -0.0104696 -0.0120049 -0.0089393 -0.0104696 -0.0087611 -0.0104163 -0.0104696 -0.0120049 -0.0104163 -0.0120803 -0.0119346 -0.0133438 -0.0120049 -0.0135226 -0.0133438 -0.0147122 -0.0135226 -0.0149994 -0.0120049 -0.0135226 -0.0120803 -0.013729 -0.0135226 -0.0149994 -0.013729 -0.0153371 -0.0087611 -0.0104163 -0.00853654 -0.0103387 -0.0104163 -0.0120803 -0.0103387 -0.0121544 -0.00853654 -0.0103387 -0.00825461 -0.0102267 -0.0103387 -0.0121544 -0.0102267 -0.0122189 -0.0120803 -0.013729 -0.0121544 -0.0139582 -0.013729 -0.0153371 -0.0139582 -0.0157228 -0.0121544 -0.0139582 -0.0122189 -0.0142039 -0.0139582 -0.0157228 -0.0142039 -0.0161522 -0.0147122 -0.0160172 -0.0149994 -0.0164109 -0.0160172 -0.0172364 -0.0164109 -0.0177326 -0.0149994 -0.0164109 -0.0153371 -0.0168783 -0.0164109 -0.0177326 -0.0168783 -0.0183251 -0.0172364 -0.0183477 -0.0177326 -0.0189397 -0.0183477 -0.0193297 -0.0189397 -0.0200086 -0.0177326 -0.0189397 -0.0183251 -0.0196499 -0.0189397 -0.0200086 -0.0196499 -0.0208259 -0.0153371 -0.0168783 -0.0157228 -0.017419 -0.0168783 -0.0183251 -0.017419 -0.0190165 -0.0157228 -0.017419 -0.0161522 -0.0180318 -0.017419 -0.0190165 -0.0180318 -0.0198088 -0.0183251 -0.0196499 -0.0190165 -0.020484 -0.0196499 -0.0208259 -0.020484 -0.0217905 -0.0190165 -0.020484 -0.0198088 -0.0214476 -0.020484 -0.0217905 -0.0214476 -0.0229122 -0.00825461 -0.0102267 -0.00790188 -0.0100682 -0.0102267 -0.0122189 -0.0100682 -0.0122628 -0.00790188 -0.0100682 -0.00746217 -0.00984777 -0.0100682 -0.0122628 -0.00984777 -0.012272 -0.0122189 -0.0142039 -0.0122628 -0.0144569 -0.0142039 -0.0161522 -0.0144569 -0.0166187 -0.0122628 -0.0144569 -0.012272 -0.0147049 -0.0144569 -0.0166187 -0.0147049 -0.0171127 -0.00746217 -0.00984777 -0.00691634 -0.00954665 -0.00984777 -0.012272 -0.00954665 -0.0122286 -0.00691634 -0.00954665 -0.00624206 -0.00914232 -0.00954665 -0.0122286 -0.00914232 -0.01211 -0.012272 -0.0147049 -0.0122286 -0.0149315 -0.0147049 -0.0171127 -0.0149315 -0.01762 -0.0122286 -0.0149315 -0.01211 -0.0151147 -0.0149315 -0.01762 -0.0151147 -0.0181206 -0.0161522 -0.0180318 -0.0166187 -0.0187133 -0.0180318 -0.0198088 -0.0187133 -0.0207026 -0.0166187 -0.0187133 -0.0171127 -0.0194574 -0.0187133 -0.0207026 -0.0194574 -0.0216962 -0.0198088 -0.0214476 -0.0207026 -0.0225459 -0.0214476 -0.0229122 -0.0225459 -0.024201 -0.0207026 -0.0225459 -0.0216962 -0.0237827 -0.0225459 -0.024201 -0.0237827 -0.0256669 -0.0171127 -0.0194574 -0.01762 -0.0202533 -0.0194