# vtk DataFile Version 3.0
#This file was generated by the deal.II library on 2026/1/5 at 14:19:35
ASCII
DATASET UNSTRUCTURED_GRID

POINTS 4096 double
0 0 0
0.03125 0 0
0 0.03125 0
0.03125 0.03125 0
0.03125 0 0
0.0625 0 0
0.03125 0.03125 0
0.0625 0.03125 0
0 0.03125 0
0.03125 0.03125 0
0 0.0625 0
0.03125 0.0625 0
0.03125 0.03125 0
0.0625 0.03125 0
0.03125 0.0625 0
0.0625 0.0625 0
0.0625 0 0
0.09375 0 0
0.0625 0.03125 0
0.09375 0.03125 0
0.09375 0 0
0.125 0 0
0.09375 0.03125 0
0.125 0.03125 0
0.0625 0.03125 0
0.09375 0.03125 0
0.0625 0.0625 0
0.09375 0.0625 0
0.09375 0.03125 0
0.125 0.03125 0
0.09375 0.0625 0
0.125 0.0625 0
0 0.0625 0
0.03125 0.0625 0
0 0.09375 0
0.03125 0.09375 0
0.03125 0.0625 0
0.0625 0.0625 0
0.03125 0.09375 0
0.0625 0.09375 0
0 0.09375 0
0.03125 0.09375 0
0 0.125 0
0.03125 0.125 0
0.03125 0.09375 0
0.0625 0.09375 0
0.03125 0.125 0
0.0625 0.125 0
0.0625 0.0625 0
0.09375 0.0625 0
0.0625 0.09375 0
0.09375 0.09375 0
0.09375 0.0625 0
0.125 0.0625 0
0.09375 0.09375 0
0.125 0.09375 0
0.0625 0.09375 0
0.09375 0.09375 0
0.0625 0.125 0
0.09375 0.125 0
0.09375 0.09375 0
0.125 0.09375 0
0.09375 0.125 0
0.125 0.125 0
0.125 0 0
0.15625 0 0
0.125 0.03125 0
0.15625 0.03125 0
0.15625 0 0
0.1875 0 0
0.15625 0.03125 0
0.1875 0.03125 0
0.125 0.03125 0
0.15625 0.03125 0
0.125 0.0625 0
0.15625 0.0625 0
0.15625 0.03125 0
0.1875 0.03125 0
0.15625 0.0625 0
0.1875 0.0625 0
0.1875 0 0
0.21875 0 0
0.1875 0.03125 0
0.21875 0.03125 0
0.21875 0 0
0.25 0 0
0.21875 0.03125 0
0.25 0.03125 0
0.1875 0.03125 0
0.21875 0.03125 0
0.1875 0.0625 0
0.21875 0.0625 0
0.21875 0.03125 0
0.25 0.03125 0
0.21875 0.0625 0
0.25 0.0625 0
0.125 0.0625 0
0.15625 0.0625 0
0.125 0.09375 0
0.15625 0.09375 0
0.15625 0.0625 0
0.1875 0.0625 0
0.15625 0.09375 0
0.1875 0.09375 0
0.125 0.09375 0
0.15625 0.09375 0
0.125 0.125 0
0.15625 0.125 0
0.15625 0.09375 0
0.1875 0.09375 0
0.15625 0.125 0
0.1875 0.125 0
0.1875 0.0625 0
0.21875 0.0625 0
0.1875 0.09375 0
0.21875 0.09375 0
0.21875 0.0625 0
0.25 0.0625 0
0.21875 0.09375 0
0.25 0.09375 0
0.1875 0.09375 0
0.21875 0.09375 0
0.1875 0.125 0
0.21875 0.125 0
0.21875 0.09375 0
0.25 0.09375 0
0.21875 0.125 0
0.25 0.125 0
0 0.125 0
0.03125 0.125 0
0 0.15625 0
0.03125 0.15625 0
0.03125 0.125 0
0.0625 0.125 0
0.03125 0.15625 0
0.0625 0.15625 0
0 0.15625 0
0.03125 0.15625 0
0 0.1875 0
0.03125 0.1875 0
0.03125 0.15625 0
0.0625 0.15625 0
0.03125 0.1875 0
0.0625 0.1875 0
0.0625 0.125 0
0.09375 0.125 0
0.0625 0.15625 0
0.09375 0.15625 0
0.09375 0.125 0
0.125 0.125 0
0.09375 0.15625 0
0.125 0.15625 0
0.0625 0.15625 0
0.09375 0.15625 0
0.0625 0.1875 0
0.09375 0.1875 0
0.09375 0.15625 0
0.125 0.15625 0
0.09375 0.1875 0
0.125 0.1875 0
0 0.1875 0
0.03125 0.1875 0
0 0.21875 0
0.03125 0.21875 0
0.03125 0.1875 0
0.0625 0.1875 0
0.03125 0.21875 0
0.0625 0.21875 0
0 0.21875 0
0.03125 0.21875 0
0 0.25 0
0.03125 0.25 0
0.03125 0.21875 0
0.0625 0.21875 0
0.03125 0.25 0
0.0625 0.25 0
0.0625 0.1875 0
0.09375 0.1875 0
0.0625 0.21875 0
0.09375 0.21875 0
0.09375 0.1875 0
0.125 0.1875 0
0.09375 0.21875 0
0.125 0.21875 0
0.0625 0.21875 0
0.09375 0.21875 0
0.0625 0.25 0
0.09375 0.25 0
0.09375 0.21875 0
0.125 0.21875 0
0.09375 0.25 0
0.125 0.25 0
0.125 0.125 0
0.15625 0.125 0
0.125 0.15625 0
0.15625 0.15625 0
0.15625 0.125 0
0.1875 0.125 0
0.15625 0.15625 0
0.1875 0.15625 0
0.125 0.15625 0
0.15625 0.15625 0
0.125 0.1875 0
0.15625 0.1875 0
0.15625 0.15625 0
0.1875 0.15625 0
0.15625 0.1875 0
0.1875 0.1875 0
0.1875 0.125 0
0.21875 0.125 0
0.1875 0.15625 0
0.21875 0.15625 0
0.21875 0.125 0
0.25 0.125 0
0.21875 0.15625 0
0.25 0.15625 0
0.1875 0.15625 0
0.21875 0.15625 0
0.1875 0.1875 0
0.21875 0.1875 0
0.21875 0.15625 0
0.25 0.15625 0
0.21875 0.1875 0
0.25 0.1875 0
0.125 0.1875 0
0.15625 0.1875 0
0.125 0.21875 0
0.15625 0.21875 0
0.15625 0.1875 0
0.1875 0.1875 0
0.15625 0.21875 0
0.1875 0.21875 0
0.125 0.21875 0
0.15625 0.21875 0
0.125 0.25 0
0.15625 0.25 0
0.15625 0.21875 0
0.1875 0.21875 0
0.15625 0.25 0
0.1875 0.25 0
0.1875 0.1875 0
0.21875 0.1875 0
0.1875 0.21875 0
0.21875 0.21875 0
0.21875 0.1875 0
0.25 0.1875 0
0.21875 0.21875 0
0.25 0.21875 0
0.1875 0.21875 0
0.21875 0.21875 0
0.1875 0.25 0
0.21875 0.25 0
0.21875 0.21875 0
0.25 0.21875 0
0.21875 0.25 0
0.25 0.25 0
0.25 0 0
0.28125 0 0
0.25 0.03125 0
0.28125 0.03125 0
0.28125 0 0
0.3125 0 0
0.28125 0.03125 0
0.3125 0.03125 0
0.25 0.03125 0
0.28125 0.03125 0
0.25 0.0625 0
0.28125 0.0625 0
0.28125 0.03125 0
0.3125 0.03125 0
0.28125 0.0625 0
0.3125 0.0625 0
0.3125 0 0
0.34375 0 0
0.3125 0.03125 0
0.34375 0.03125 0
0.34375 0 0
0.375 0 0
0.34375 0.03125 0
0.375 0.03125 0
0.3125 0.03125 0
0.34375 0.03125 0
0.3125 0.0625 0
0.34375 0.0625 0
0.34375 0.03125 0
0.375 0.03125 0
0.34375 0.0625 0
0.375 0.0625 0
0.25 0.0625 0
0.28125 0.0625 0
0.25 0.09375 0
0.28125 0.09375 0
0.28125 0.0625 0
0.3125 0.0625 0
0.28125 0.09375 0
0.3125 0.09375 0
0.25 0.09375 0
0.28125 0.09375 0
0.25 0.125 0
0.28125 0.125 0
0.28125 0.09375 0
0.3125 0.09375 0
0.28125 0.125 0
0.3125 0.125 0
0.3125 0.0625 0
0.34375 0.0625 0
0.3125 0.09375 0
0.34375 0.09375 0
0.34375 0.0625 0
0.375 0.0625 0
0.34375 0.09375 0
0.375 0.09375 0
0.3125 0.09375 0
0.34375 0.09375 0
0.3125 0.125 0
0.34375 0.125 0
0.34375 0.09375 0
0.375 0.09375 0
0.34375 0.125 0
0.375 0.125 0
0.375 0 0
0.40625 0 0
0.375 0.03125 0
0.40625 0.03125 0
0.40625 0 0
0.4375 0 0
0.40625 0.03125 0
0.4375 0.03125 0
0.375 0.03125 0
0.40625 0.03125 0
0.375 0.0625 0
0.40625 0.0625 0
0.40625 0.03125 0
0.4375 0.03125 0
0.40625 0.0625 0
0.4375 0.0625 0
0.4375 0 0
0.46875 0 0
0.4375 0.03125 0
0.46875 0.03125 0
0.46875 0 0
0.5 0 0
0.46875 0.03125 0
0.5 0.03125 0
0.4375 0.03125 0
0.46875 0.03125 0
0.4375 0.0625 0
0.46875 0.0625 0
0.46875 0.03125 0
0.5 0.03125 0
0.46875 0.0625 0
0.5 0.0625 0
0.375 0.0625 0
0.40625 0.0625 0
0.375 0.09375 0
0.40625 0.09375 0
0.40625 0.0625 0
0.4375 0.0625 0
0.40625 0.09375 0
0.4375 0.09375 0
0.375 0.09375 0
0.40625 0.09375 0
0.375 0.125 0
0.40625 0.125 0
0.40625 0.09375 0
0.4375 0.09375 0
0.40625 0.125 0
0.4375 0.125 0
0.4375 0.0625 0
0.46875 0.0625 0
0.4375 0.09375 0
0.46875 0.09375 0
0.46875 0.0625 0
0.5 0.0625 0
0.46875 0.09375 0
0.5 0.09375 0
0.4375 0.09375 0
0.46875 0.09375 0
0.4375 0.125 0
0.46875 0.125 0
0.46875 0.09375 0
0.5 0.09375 0
0.46875 0.125 0
0.5 0.125 0
0.25 0.125 0
0.28125 0.125 0
0.25 0.15625 0
0.28125 0.15625 0
0.28125 0.125 0
0.3125 0.125 0
0.28125 0.15625 0
0.3125 0.15625 0
0.25 0.15625 0
0.28125 0.15625 0
0.25 0.1875 0
0.28125 0.1875 0
0.28125 0.15625 0
0.3125 0.15625 0
0.28125 0.1875 0
0.3125 0.1875 0
0.3125 0.125 0
0.34375 0.125 0
0.3125 0.15625 0
0.34375 0.15625 0
0.34375 0.125 0
0.375 0.125 0
0.34375 0.15625 0
0.375 0.15625 0
0.3125 0.15625 0
0.34375 0.15625 0
0.3125 0.1875 0
0.34375 0.1875 0
0.34375 0.15625 0
0.375 0.15625 0
0.34375 0.1875 0
0.375 0.1875 0
0.25 0.1875 0
0.28125 0.1875 0
0.25 0.21875 0
0.28125 0.21875 0
0.28125 0.1875 0
0.3125 0.1875 0
0.28125 0.21875 0
0.3125 0.21875 0
0.25 0.21875 0
0.28125 0.21875 0
0.25 0.25 0
0.28125 0.25 0
0.28125 0.21875 0
0.3125 0.21875 0
0.28125 0.25 0
0.3125 0.25 0
0.3125 0.1875 0
0.34375 0.1875 0
0.3125 0.21875 0
0.34375 0.21875 0
0.34375 0.1875 0
0.375 0.1875 0
0.34375 0.21875 0
0.375 0.21875 0
0.3125 0.21875 0
0.34375 0.21875 0
0.3125 0.25 0
0.34375 0.25 0
0.34375 0.21875 0
0.375 0.21875 0
0.34375 0.25 0
0.375 0.25 0
0.375 0.125 0
0.40625 0.125 0
0.375 0.15625 0
0.40625 0.15625 0
0.40625 0.125 0
0.4375 0.125 0
0.40625 0.15625 0
0.4375 0.15625 0
0.375 0.15625 0
0.40625 0.15625 0
0.375 0.1875 0
0.40625 0.1875 0
0.40625 0.15625 0
0.4375 0.15625 0
0.40625 0.1875 0
0.4375 0.1875 0
0.4375 0.125 0
0.46875 0.125 0
0.4375 0.15625 0
0.46875 0.15625 0
0.46875 0.125 0
0.5 0.125 0
0.46875 0.15625 0
0.5 0.15625 0
0.4375 0.15625 0
0.46875 0.15625 0
0.4375 0.1875 0
0.46875 0.1875 0
0.46875 0.15625 0
0.5 0.15625 0
0.46875 0.1875 0
0.5 0.1875 0
0.375 0.1875 0
0.40625 0.1875 0
0.375 0.21875 0
0.40625 0.21875 0
0.40625 0.1875 0
0.4375 0.1875 0
0.40625 0.21875 0
0.4375 0.21875 0
0.375 0.21875 0
0.40625 0.21875 0
0.375 0.25 0
0.40625 0.25 0
0.40625 0.21875 0
0.4375 0.21875 0
0.40625 0.25 0
0.4375 0.25 0
0.4375 0.1875 0
0.46875 0.1875 0
0.4375 0.21875 0
0.46875 0.21875 0
0.46875 0.1875 0
0.5 0.1875 0
0.46875 0.21875 0
0.5 0.21875 0
0.4375 0.21875 0
0.46875 0.21875 0
0.4375 0.25 0
0.46875 0.25 0
0.46875 0.21875 0
0.5 0.21875 0
0.46875 0.25 0
0.5 0.25 0
0 0.25 0
0.03125 0.25 0
0 0.28125 0
0.03125 0.28125 0
0.03125 0.25 0
0.0625 0.25 0
0.03125 0.28125 0
0.0625 0.28125 0
0 0.28125 0
0.03125 0.28125 0
0 0.3125 0
0.03125 0.3125 0
0.03125 0.28125 0
0.0625 0.28125 0
0.03125 0.3125 0
0.0625 0.3125 0
0.0625 0.25 0
0.09375 0.25 0
0.0625 0.28125 0
0.09375 0.28125 0
0.09375 0.25 0
0.125 0.25 0
0.09375 0.28125 0
0.125 0.28125 0
0.0625 0.28125 0
0.09375 0.28125 0
0.0625 0.3125 0
0.09375 0.3125 0
0.09375 0.28125 0
0.125 0.28125 0
0.09375 0.3125 0
0.125 0.3125 0
0 0.3125 0
0.03125 0.3125 0
0 0.34375 0
0.03125 0.34375 0
0.03125 0.3125 0
0.0625 0.3125 0
0.03125 0.34375 0
0.0625 0.34375 0
0 0.34375 0
0.03125 0.34375 0
0 0.375 0
0.03125 0.375 0
0.03125 0.34375 0
0.0625 0.34375 0
0.03125 0.375 0
0.0625 0.375 0
0.0625 0.3125 0
0.09375 0.3125 0
0.0625 0.34375 0
0.09375 0.34375 0
0.09375 0.3125 0
0.125 0.3125 0
0.09375 0.34375 0
0.125 0.34375 0
0.0625 0.34375 0
0.09375 0.34375 0
0.0625 0.375 0
0.09375 0.375 0
0.09375 0.34375 0
0.125 0.34375 0
0.09375 0.375 0
0.125 0.375 0
0.125 0.25 0
0.15625 0.25 0
0.125 0.28125 0
0.15625 0.28125 0
0.15625 0.25 0
0.1875 0.25 0
0.15625 0.28125 0
0.1875 0.28125 0
0.125 0.28125 0
0.15625 0.28125 0
0.125 0.3125 0
0.15625 0.3125 0
0.15625 0.28125 0
0.1875 0.28125 0
0.15625 0.3125 0
0.1875 0.3125 0
0.1875 0.25 0
0.21875 0.25 0
0.1875 0.28125 0
0.21875 0.28125 0
0.21875 0.25 0
0.25 0.25 0
0.21875 0.28125 0
0.25 0.28125 0
0.1875 0.28125 0
0.21875 0.28125 0
0.1875 0.3125 0
0.21875 0.3125 0
0.21875 0.28125 0
0.25 0.28125 0
0.21875 0.3125 0
0.25 0.3125 0
0.125 0.3125 0
0.15625 0.3125 0
0.125 0.34375 0
0.15625 0.34375 0
0.15625 0.3125 0
0.1875 0.3125 0
0.15625 0.34375 0
0.1875 0.34375 0
0.125 0.34375 0
[...]
POINT_DATA 4096
SCALARS p double 1
LOOKUP_TABLE default
1.09409e-05 0.000101592 -7.49668e-05 1.96207e-05 0.000101592 0.000346441 1.96207e-05 0.000150668 -7.49668e-05 1.96207e-05 -0.000322351 -0.00011298 1.96207e-05 0.000150668 -0.00011298 1.98648e-05 0.000346441 0.000597263 0.000150668 0.000287276 0.000597263 0.000759655 0.000287276 0.000367426 0.000150668 0.000287276 1.98648e-05 0.000146491 0.000287276 0.000367426 0.000146491 0.000204814 -0.000322351 -0.00011298 -0.00058243 -0.000249809 -0.00011298 1.98648e-05 -0.000249809 -9.9893e-05 -0.00058243 -0.000249809 -0.000762368 -0.00033038 -0.000249809 -9.9893e-05 -0.00033038 -0.000146888 1.98648e-05 0.000146491 -9.9893e-05 3.11616e-05 0.000146491 0.000204814 3.11616e-05 7.88583e-05 -9.9893e-05 3.11616e-05 -0.000146888 6.02149e-06 3.11616e-05 7.88583e-05 6.02149e-06 5.92074e-05 0.000759655 0.000791536 0.000367426 0.000362651 0.000791536 0.000680063 0.000362651 0.00025909 0.000367426 0.000362651 0.000204814 0.000178403 0.000362651 0.00025909 0.000178403 5.41136e-05 0.000680063 0.000425815 0.00025909 5.30639e-05 0.000425815 3.5626e-05 5.30639e-05 -0.000253675 0.00025909 5.30639e-05 5.41136e-05 -0.000172626 5.30639e-05 -0.000253675 -0.000172626 -0.000501678 0.000204814 0.000178403 7.88583e-05 4.31112e-05 0.000178403 5.41136e-05 4.31112e-05 -8.45927e-05 7.88583e-05 4.31112e-05 5.92074e-05 2.34836e-05 4.31112e-05 -8.45927e-05 2.34836e-05 -0.000105407 5.41136e-05 -0.000172626 -8.45927e-05 -0.000306991 -0.000172626 -0.000501678 -0.000306991 -0.000624109 -8.45927e-05 -0.000306991 -0.000105407 -0.000327743 -0.000306991 -0.000624109 -0.000327743 -0.000642767 -0.000762368 -0.00033038 -0.000817406 -0.000322766 -0.00033038 -0.000146888 -0.000322766 -9.98227e-05 -0.000817406 -0.000322766 -0.000727381 -0.000206606 -0.000322766 -9.98227e-05 -0.000206606 6.24477e-05 -0.000146888 6.02149e-06 -9.98227e-05 7.71555e-05 6.02149e-06 5.92074e-05 7.71555e-05 0.000142217 -9.98227e-05 7.71555e-05 6.24477e-05 0.000261729 7.71555e-05 0.000142217 0.000261729 0.000341419 -0.000727381 -0.000206606 -0.0004823 3.0647e-05 -0.000206606 6.24477e-05 3.0647e-05 0.000354614 -0.0004823 3.0647e-05 -7.5857e-05 0.000398175 3.0647e-05 0.000354614 0.000398175 0.000788761 6.24477e-05 0.000261729 0.000354614 0.000572814 0.000261729 0.000341419 0.000572814 0.000667795 0.000354614 0.000572814 0.000788761 0.00102263 0.000572814 0.000667795 0.00102263 0.00113286 5.92074e-05 2.34836e-05 0.000142217 0.000111619 2.34836e-05 -0.000105407 0.000111619 -1.53296e-05 0.000142217 0.000111619 0.000341419 0.000318011 0.000111619 -1.53296e-05 0.000318011 0.00019373 -0.000105407 -0.000327743 -1.53296e-05 -0.000236762 -0.000327743 -0.000642767 -0.000236762 -0.000550925 -1.53296e-05 -0.000236762 0.00019373 -2.8026e-05 -0.000236762 -0.000550925 -2.8026e-05 -0.000344586 0.000341419 0.000318011 0.000667795 0.000651718 0.000318011 0.00019373 0.000651718 0.000529426 0.000667795 0.000651718 0.00113286 0.00112323 0.000651718 0.000529426 0.00112323 0.00100134 0.00019373 -2.8026e-05 0.000529426 0.00030535 -2.8026e-05 -0.000344586 0.00030535 -1.7119e-05 0.000529426 0.00030535 0.00100134 0.000772222 0.00030535 -1.7119e-05 0.000772222 0.000439824 3.5626e-05 -0.000481179 -0.000253675 -0.000656402 -0.000481179 -0.00111441 -0.000656402 -0.00114882 -0.000253675 -0.000656402 -0.000501678 -0.000929702 -0.000656402 -0.00114882 -0.000929702 -0.00145136 -0.00111441 -0.00185349 -0.00114882 -0.00172354 -0.00185349 -0.00268733 -0.00172354 -0.00237231 -0.00114882 -0.00172354 -0.00145136 -0.00205973 -0.00172354 -0.00237231 -0.00205973 -0.00274664 -0.000501678 -0.000929702 -0.000624109 -0.00103357 -0.000929702 -0.00145136 -0.00103357 -0.00153123 -0.000624109 -0.00103357 -0.000642767 -0.0010482 -0.00103357 -0.00153123 -0.0010482 -0.00154039 -0.00145136 -0.00205973 -0.00153123 -0.0021113 -0.00205973 -0.00274664 -0.0021113 -0.00276664 -0.00153123 -0.0021113 -0.00154039 -0.00211418 -0.0021113 -0.00276664 -0.00211418 -0.00276305 -0.00268733 -0.00360404 -0.00237231 -0.00308589 -0.00360404 -0.00459057 -0.00308589 -0.00385399 -0.00237231 -0.00308589 -0.00274664 -0.00350253 -0.00308589 -0.00385399 -0.00350253 -0.00431662 -0.00459057 -0.00563246 -0.00385399 -0.00466511 -0.00563246 -0.00671361 -0.00466511 -0.00550648 -0.00385399 -0.00466511 -0.00431662 -0.00517667 -0.00466511 -0.00550648 -0.00517667 -0.00606903 -0.00274664 -0.00350253 -0.00276664 -0.00348854 -0.00350253 -0.00431662 -0.00348854 -0.00426698 -0.00276664 -0.00348854 -0.00276305 -0.0034789 -0.00348854 -0.00426698 -0.0034789 -0.00425218 -0.00431662 -0.00517667 -0.00426698 -0.00509041 -0.00517667 -0.00606903 -0.00509041 -0.00594582 -0.00426698 -0.00509041 -0.00425218 -0.00507166 -0.00509041 -0.00594582 -0.00507166 -0.00592461 -0.000642767 -0.0010482 -0.000550925 -0.000955317 -0.0010482 -0.00154039 -0.000955317 -0.0014465 -0.000550925 -0.000955317 -0.000344586 -0.000753128 -0.000955317 -0.0014465 -0.000753128 -0.00125027 -0.00154039 -0.00211418 -0.0014465 -0.00201976 -0.00211418 -0.00276305 -0.00201976 -0.00266909 -0.0014465 -0.00201976 -0.00125027 -0.00183161 -0.00201976 -0.00266909 -0.00183161 -0.00249152 -0.000344586 -0.000753128 -1.7119e-05 -0.000434903 -0.000753128 -0.00125027 -0.000434903 -0.000944617 -1.7119e-05 -0.000434903 0.000439824 7.44781e-06 -0.000434903 -0.000944617 7.44781e-06 -0.000521552 -0.00125027 -0.00183161 -0.000944617 -0.00154209 -0.00183161 -0.00249152 -0.00154209 -0.00222207 -0.000944617 -0.00154209 -0.000521552 -0.00114328 -0.00154209 -0.00222207 -0.00114328 -0.0018528 -0.00276305 -0.0034789 -0.00266909 -0.00338691 -0.0034789 -0.00425218 -0.00338691 -0.0041641 -0.00266909 -0.00338691 -0.00249152 -0.00322284 -0.00338691 -0.0041641 -0.00322284 -0.0040168 -0.00425218 -0.00507166 -0.0041641 -0.00498976 -0.00507166 -0.00592461 -0.00498976 -0.00585132 -0.0041641 -0.00498976 -0.0040168 -0.00486274 -0.00498976 -0.00585132 -0.00486274 -0.00574813 -0.00249152 -0.00322284 -0.00222207 -0.00297778 -0.00322284 -0.0040168 -0.00297778 -0.00380072 -0.00222207 -0.00297778 -0.0018528 -0.00264375 -0.00297778 -0.00380072 -0.00264375 -0.00350792 -0.0040168 -0.00486274 -0.00380072 -0.0046804 -0.00486274 -0.00574813 -0.0046804 -0.00560426 -0.00380072 -0.0046804 -0.00350792 -0.00443497 -0.0046804 -0.00560426 -0.00443497 -0.00541232 -7.5857e-05 0.000398175 0.000498188 0.000904303 0.000398175 0.000788761 0.000904303 0.00137602 0.000498188 0.000904303 0.00124788 0.00155808 0.000904303 0.00137602 0.00155808 0.00212811 0.000788761 0.00102263 0.00137602 0.00162302 0.00102263 0.00113286 0.00162302 0.00174852 0.00137602 0.00162302 0.00212811 0.00238656 0.00162302 0.00174852 0.00238656 0.00252772 0.00124788 0.00155808 0.00218404 0.00237034 0.00155808 0.00212811 0.00237034 0.00305849 0.00218404 0.00237034 0.00332081 0.00335424 0.00237034 0.00305849 0.00335424 0.00418295 0.00212811 0.00238656 0.00305849 0.00332749 0.00238656 0.00252772 0.00332749 0.00348524 0.00305849 0.00332749 0.00418295 0.00446229 0.00332749 0.00348524 0.00446229 0.00463814 0.00113286 0.00112323 0.00174852 0.00174408 0.00112323 0.00100134 0.00174408 0.00162054 0.00174852 0.00174408 0.00252772 0.00252721 0.00174408 0.00162054 0.00252721 0.00239983 0.00100134 0.000772222 0.00162054 0.00138326 0.000772222 0.000439824 0.00138326 0.00103673 0.00162054 0.00138326 0.00239983 0.00215121 0.00138326 0.00103673 0.00215121 0.0017864 0.00252772 0.00252721 0.00348524 0.00348756 0.00252721 0.00239983 0.00348756 0.00335427 0.00348524 0.00348756 0.00463814 0.00464251 0.00348756 0.00335427 0.00464251 0.00450141 0.00239983 0.00215121 0.00335427 0.00309124 0.00215121 0.0017864 0.00309124 0.0027042 0.00335427 0.00309124 0.00450141 0.00422117 0.00309124 0.0027042 0.00422117 0.00380836 0.00332081 0.00335424 0.00467597 0.00452593 0.00335424 0.00418295 0.00452593 0.00552052 0.00467597 0.00452593 0.00627118 0.00590493 0.00452593 0.00552052 0.00590493 0.00709399 0.00418295 0.00446229 0.00552052 0.00581053 0.00446229 0.00463814 0.00581053 0.0060065 0.00552052 0.00581053 0.00709399 0.00739544 0.00581053 0.0060065 0.00739544 0.00761394 0.00627118 0.00590493 0.00813252 0.00751483 0.00590493 0.00709399 0.00751483 0.00893088 0.00813252 0.00751483 0.0102914 0.00938431 0.00751483 0.00893088 0.00938431 0.0110646 0.00709399 0.00739544 0.00893088 0.00924493 0.00739544 0.00761394 0.00924493 0.00948859 0.00893088 0.00924493 0.0110646 0.0113926 0.00924493 0.00948859 0.0113926 0.0116639 0.00463814 0.00464251 0.0060065 0.00601238 0.00464251 0.00450141 0.00601238 0.00586177 0.0060065 0.00601238 0.00761394 0.00762088 0.00601238 0.00586177 0.00762088 0.00745916 0.00450141 0.00422117 0.00586177 0.00556177 0.00422117 0.00380836 0.00556177 0.00512006 0.00586177 0.00556177 0.00745916 0.00713704 0.00556177 0.00512006 0.00713704 0.00666371 0.00761394 0.00762088 0.00948859 0.00949591 0.00762088 0.00745916 0.00949591 0.00932121 0.00948859 0.00949591 0.0116639 0.0116702 0.00949591 0.00932121 0.0116702 0.0114798 0.00745916 0.00713704 0.00932121 0.00897451 0.00713704 0.00666371 0.00897451 0.00846702 0.00932121 0.00897451 0.0114798 0.0111054 0.00897451 0.00846702 0.0111054 0.010561 0.000439824 7.44781e-06 0.00103673 0.000584414 7.44781e-06 -0.000521552 0.000584414 2.95452e-05 0.00103673 0.000584414 0.0017864 0.00130896 0.000584414 2.95452e-05 0.00130896 0.000721959 -0.000521552 -0.00114328 2.95452e-05 -0.000624294 -0.00114328 -0.0018528 -0.000624294 -0.00137256 2.95452e-05 -0.000624294 0.000721959 2.85782e-05 -0.000624294 -0.00137256 2.85782e-05 -0.000767176 0.0017864 0.00130896 0.0027042 0.00219682 0.00130896 0.000721959 0.00219682 0.00157195 0.0027042 0.00219682 0.00380836 0.00326678 0.00219682 0.00157195 0.00326678 0.00259902 0.000721959 2.85782e-05 0.00157195 0.000832245 2.85782e-05 -0.000767176 0.000832245 -1.89837e-05 0.00157195 0.000832245 0.00259902 0.0018071 0.000832245 -1.89837e-05 0.0018071 0.000893445 -0.0018528 -0.00264375 -0.00137256 -0.00220933 -0.00264375 -0.00350792 -0.00220933 -0.00312678 -0.00137256 -0.00220933 -0.000767176 -0.00165992 -0.00220933 -0.00312678 -0.00165992 -0.00264236 -0.00350792 -0.00443497 -0.00312678 -0.00411483 -0.00443497 -0.00541232 -0.00411483 -0.00516085 -0.00312678 -0.00411483 -0.00264236 -0.00370481 -0.00411483 -0.00516085 -0.00370481 -0.00483475 -0.000767176 -0.00165992 -1.89837e-05 -0.000977093 -0.00165992 -0.00264236 -0.000977093 -0.00203555 -1.89837e-05 -0.000977093 0.000893445 -0.000138315 -0.000977093 -0.00203555 -0.000138315 -0.00128271 -0.00264236 -0.00370481 -0.00203555 -0.00318531 -0.00370481 -0.00483475 -0.00318531 -0.00441421 -0.00203555 -0.00318531 -0.00128271 -0.00253175 -0.00318531 -0.00441421 -0.00253175 -0.00387402 0.00380836 0.00326678 0.00512006 0.00454069 0.00326678 0.00259902 0.00454069 0.00382591 0.00512006 0.00454069 0.00666371 0.00604362 0.00454069 0.00382591 0.00604362 0.00527871 0.00259902 0.0018071 0.00382591 0.00297704 0.0018071 0.000893445 0.00297704 0.00199539 0.00382591 0.00297704 0.00527871 0.00436947 0.00297704 0.00199539 0.00436947 0.00331592 0.00666371 0.00604362 0.00846702 0.00780382 0.00604362 0.00527871 0.00780382 0.00698665 0.00846702 0.00780382 0.010561 0.00985254 0.00780382 0.00698665 0.00985254 0.00898177 0.00527871 0.00436947 0.00698665 0.00601509 0.00436947 0.00331592 0.00601509 0.00488769 0.00698665 0.00601509 0.00898177 0.00794732 0.00601509 0.00488769 0.00794732 0.00674619 0.000893445 -0.000138315 0.00199539 0.000883231 -0.000138315 -0.00128271 0.000883231 -0.000355427 0.00199539 0.000883231 0.00331592 0.00211866 0.000883231 -0.000355427 0.00211866 0.000779748 -0.00128271 -0.00253175 -0.000355427 -0.00171409 -0.00253175 -0.00387402 -0.00171409 -0.00318276 -0.000355427 -0.00171409 0.000779748 -0.000696452 -0.00171409 -0.00318276 -0.000696452 -0.00230214 0.00331592 0.00211866 0.00488769 0.00360308 0.00211866 0.000779748 0.00360308 0.00216091 0.00488769 0.00360308 0.00674619 0.00537486 0.00360308 0.00216091 0.00537486 0.00383018 0.000779748 -0.000696452 0.00216091 0.00056276 -0.000696452 -0.00230214 0.00056276 -0.00118675 0.00216091 0.00056276 0.00383018 0.00211024 0.00056276 -0.00118675 0.00211024 0.000215532 -0.00671361 -0.00781623 -0.00550648 -0.00636401 -0.00781623 -0.00892098 -0.00636401 -0.00722239 -0.00550648 -0.00636401 -0.00606903 -0.00697865 -0.00636401 -0.00722239 -0.00697865 -0.00788914 -0.00892098 -0.0100071 -0.00722239 -0.00806532 -0.0100071 -0.0110526 -0.00806532 -0.00887564 -0.00722239 -0.00806532 -0.00788914 -0.00878307 -0.00806532 -0.00887564 -0.00878307 -0.00964216 -0.00606903 -0.00697865 -0.00594582 -0.00681873 -0.00697865 -0.00788914 -0.00681873 -0.00769337 -0.00594582 -0.00681873 -0.00592461 -0.00679665 -0.00681873 -0.00769337 -0.00679665 -0.00767202 -0.00788914 -0.00878307 -0.00769337 -0.00855285 -0.00878307 -0.00964216 -0.00855285 -0.00937948 -0.00769337 -0.00855285 -0.00767202 -0.00853369 -0.00855285 -0.00937948 -0.00853369 -0.00936382 -0.0110526 -0.0120346 -0.00887564 -0.00963571 -0.0120346 -0.0129299 -0.00963571 -0.0103279 -0.00887564 -0.00963571 -0.00964216 -0.0104478 -0.00963571 -0.0103279 -0.0104478 -0.0111815 -0.0129299 -0.0137156 -0.0103279 -0.0109352 -0.0137156 -0.0143697 -0.0109352 -0.0114419 -0.0103279 -0.0109352 -0.0111815 -0.0118257 -0.0109352 -0.0114419 -0.0118257 -0.0123648 -0.00964216 -0.0104478 -0.00937948 -0.0101553 -0.0104478 -0.0111815 -0.0101553 -0.0108624 -0.00937948 -0.0101553 -0.00936382 -0.0101441 -0.0101553 -0.0108624 -0.0101441 -0.0108564 -0.0111815 -0.0118257 -0.0108624 -0.0114842 -0.0118257 -0.0123648 -0.0114842 -0.012006 -0.0108624 -0.0114842 -0.0108564 -0.0114836 -0.0114842 -0.012006 -0.0114836 -0.0120108 -0.00592461 -0.00679665 -0.00585132 -0.00673441 -0.00679665 -0.00767202 -0.00673441 -0.00762313 -0.00585132 -0.00673441 -0.00574813 -0.00665845 -0.00673441 -0.00762313 -0.00665845 -0.00757741 -0.00767202 -0.00853369 -0.00762313 -0.00850009 -0.00853369 -0.00936382 -0.00850009 -0.0093469 -0.00762313 -0.00850009 -0.00757741 -0.00848698 -0.00850009 -0.0093469 -0.00848698 -0.00936781 -0.00574813 -0.00665845 -0.00560426 -0.00655753 -0.00665845 -0.00757741 -0.00655753 -0.00752331 -0.00560426 -0.00655753 -0.00541232 -0.00642481 -0.00655753 -0.00752331 -0.00642481 -0.00745479 -0.00757741 -0.00848698 -0.00752331 -0.00848261 -0.00848698 -0.00936781 -0.00848261 -0.00941476 -0.00752331 -0.00848261 -0.00745479 -0.00848203 -0.00848261 -0.00941476 -0.00848203 -0.00948413 -0.00936382 -0.0101441 -0.0093469 -0.0101445 -0.0101441 -0.0108564 -0.0101445 -0.0108741 -0.0093469 -0.0101445 -0.00936781 -0.0101996 -0.0101445 -0.0108741 -0.0101996 -0.0109621 -0.0108564 -0.0114836 -0.0108741 -0.0115175 -0.0114836 -0.0120108 -0.0115175 -0.0120588 -0.0108741 -0.0115175 -0.0109621 -0.0116357 -0.0115175 -0.0120588 -0.0116357 -0.0122027 -0.00936781 -0.0101996 -0.00941476 -0.0102978 -0.0101996 -0.0109621 -0.0102978 -0.0111094 -0.00941476 -0.0102978 -0.00948413 -0.0104369 -0.0102978 -0.0111094 -0.0104369 -0.0113154 -0.0109621 -0.0116357 -0.0111094 -0.0118277 -0.0116357 -0.0122027 -0.0118277 -0.0124326 -0.0111094 -0.0118277 -0.0113154 -0.0120947 -0.0118277 -0.0124326 -0.0120947 -0.0127519 -0.0143697 -0.0148728 -0.0114419 -0.011835 -0.0148728 -0.0152089 -0.011835 -0.0121056 -0.0114419 -0.011835 -0.0123648 -0.0127862 -0.011835 -0.0121056 -0.0127862 -0.0130821 -0.0152089 -0.0153705 -0.0121056 -0.0122484 -0.0153705 -0.015353 -0.0122484 -0.0122814 -0.0121056 -0.0122484 -0.0130821 -0.0132492 -0.0122484 -0.0122814 -0.0132492 -0.0133037 -0.0123648 -0.0127862 -0.012006 -0.0124159 -0.0127862 -0.0130821 -0.0124159 -0.0127071 -0.012006 -0.0124159 -0.0120108 -0.0124259 -0.0124159 -0.0127071 -0.0124259 -0.0127213 -0.0130821 -0.0132492 -0.0127071 -0.0128762 -0.0132492 -0.0133037 -0.0128762 -0.0129382 -0.0127071 -0.0128762 -0.0127213 -0.0128927 -0.0128762 -0.0129382 -0.0128927 -0.0129528 -0.015353 -0.0152108 -0.0122814 -0.0121586 -0.0152108 -0.0149424 -0.0121586 -0.0122556 -0.0122814 -0.0121586 -0.0133037 -0.0132085 -0.0121586 -0.0122556 -0.0132085 -0.0132989 -0.0149424 -0.0139763 -0.0122556 -0.0109177 -0.0139763 -0.0152217 -0.0109177 -0.013788 -0.0122556 -0.0109177 -0.0132989 -0.0119725 -0.0109177 -0.013788 -0.0119725 -0.014228 -0.0133037 -0.0132085 -0.0129382 -0.0128487 -0.0132085 -0.0132989 -0.0128487 -0.0129428 -0.0129382 -0.0128487 -0.0129528 -0.0128546 -0.0128487 -0.0129428 -0.0128546 -0.0129194 -0.0132989 -0.0119725 -0.0129428 -0.0115808 -0.0119725 -0.014228 -0.0115808 -0.013949 -0.0129428 -0.0115808 -0.0129194 -0.0115264 -0.0115808 -0.013949 -0.0115264 -0.0137213 -0.0120108 -0.0124259 -0.0120588 -0.0124849 -0.0124259 -0.0127213 -0.0124849 -0.0127871 -0.0120588 -0.0124849 -0.0122027 -0.0126484 -0.0124849 -0.0127871 -0.0126484 -0.0129625 -0.0127213 -0.0128927 -0.0127871 -0.0129596 -0.0128927 -0.0129528 -0.0129596 -0.0130133 -0.0127871 -0.0129596 -0.0129625 -0.0131378 -0.0129596 -0.0130133 -0.0131378 -0.013184 -0.0122027 -0.0126484 -0.0124326 -0.0129074 -0.0126484 -0.0129625 -0.0129074 -0.0132399 -0.0124326 -0.0129074 -0.0127519 -0.0132671 -0.0129074 -0.0132399 -0.0132671 -0.013626 -0.0129625 -0.0131378 -0.0132399 -0.0134214 -0.0131378 -0.013184 -0.0134214 -0.0134609 -0.0132399 -0.0134214 -0.013626 -0.0138184 -0.0134214 -0.0134609 -0.0138184 -0.0138532 -0.0129528 -0.0128546 -0.0130133 -0.0128986 -0.0128546 -0.0129194 -0.0128986 -0.0129332 -0.0130133 -0.0128986 -0.013184 -0.0130501 -0.0128986 -0.0129332 -0.0130501 -0.0130546 -0.0129194 -0.0115264 -0.0129332 -0.0114968 -0.0115264 -0.0137213 -0.0114968 -0.0136366 -0.0129332 -0.0114968 -0.0130546 -0.0115712 -0.0114968 -0.0136366 -0.0115712 -0.0136718 -0.013184 -0.0130501 -0.0134609 -0.0133067 -0.0130501 -0.0130546 -0.0133067 -0.0132831 -0.0134609 -0.0133067 -0.0138532 -0.0136782 -0.0133067 -0.0132831 -0.0136782 -0.0136273 -0.0130546 -0.0115712 -0.0132831 -0.0117438 -0.0115712 -0.0136718 -0.0117438 -0.0138351 -0.0132831 -0.0117438 -0.0136273 -0.0120207 -0.0117438 -0.0138351 -0.0120207 -0.0141238 -0.00541232 -0.00642481 -0.00516085 -0.00624931 -0.00642481 -0.00745479 -0.00624931 -0.00736167 -0.00516085 -0.00624931 -0.00483475 -0.00601636 -0.00624931 -0.00736167 -0.00601636 -0.00723023 -0.00745479 -0.00848203 -0.00736167 -0.00847629 -0.00848203 -0.00948413 -0.00847629 -0.00956865 -0.00736167 -0.00847629 -0.00723023 -0.00845317 -0.00847629 -0.00956865 -0.00845317 -0.00965823 -0.00483475 -0.00601636 -0.00441421 -0.00570642 -0.00601636 -0.00723023 -0.00570642 -0.00704181 -0.00441421 -0.00570642 -0.00387402 -0.00529412 -0.00570642 -0.00704181 -0.00529412 -0.00677158 -0.00723023 -0.00845317 -0.00704181 -0.00839566 -0.00845317 -0.00965823 -0.00839566 -0.00973833 -0.00704181 -0.00839566 -0.00677158 -0.00828039 -0.00839566 -0.00973833 -0.00828039 -0.00978819 -0.00948413 -0.0104369 -0.00956865 -0.0106118 -0.0104369 -0.0113154 -0.0106118 -0.0115774 -0.00956865 -0.0106118 -0.00965823 -0.0108151 -0.0106118 -0.0115774 -0.0108151 -0.0118913 -0.0113154 -0.0120947 -0.0115774 -0.0124367 -0.0120947 -0.0127519 -0.0124367 -0.0131628 -0.0115774 -0.0124367 -0.0118913 -0.0128532 -0.0124367 -0.0131628 -0.0128532 -0.0136686 -0.00965823 -0.0108151 -0.00973833 -0.0110357 -0.0108151 -0.0118913 -0.0110357 -0.01225 -0.00973833 -0.0110357 -0.00978819 -0.0112565 -0.0110357 -0.01225 -0.0112565 -0.0126415 -0.0118913 -0.0128532 -0.01225 -0.0133415 -0.0128532 -0.0136686 -0.0133415 -0.0142714 -0.01225 -0.0133415 -0.0126415 -0.0138959 -0.0133415 -0.0142714 -0.0138959 -0.0149719 -0.00387402 -0.00529412 -0.00318276 -0.0047471 -0.00529412 -0.00677158 -0.0047471 -0.00638703 -0.00318276 -0.0047471 -0.00230214 -0.00402497 -0.0047471 -0.00638703 -0.00402497 -0.00584633 -0.00677158 -0.00828039 -0.00638703 -0.00807575 -0.00828039 -0.00978819 -0.00807575 -0.00977856 -0.00638703 -0.00807575 -0.00584633 -0.00773975 -0.00807575 -0.00977856 -0.00773975 -0.00966902 -0.00230214 -0.00402497 -0.00118675 -0.00307849 -0.00402497 -0.00584633 -0.00307849 -0.00509687 -0.00118675 -0.00307849 0.000215532 -0.00184951 -0.00307849 -0.00509687 -0.00184951 -0.00407429 -0.00584633 -0.00773975 -0.00509687 -0.00721747 -0.00773975 -0.00966902 -0.00721747 -0.00940429 -0.00509687 -0.00721747 -0.00407429 -0.00643901 -0.00721747 -0.00940429 -0.006