# vtk DataFile Version 3.0
#This file was generated by the deal.II library on 2026/1/5 at 14:19:28
ASCII
DATASET UNSTRUCTURED_GRID

POINTS 4096 double
0 0 0
0.03125 0 0
0 0.03125 0
0.03125 0.03125 0
0.03125 0 0
0.0625 0 0
0.03125 0.03125 0
0.0625 0.03125 0
0 0.03125 0
0.03125 0.03125 0
0 0.0625 0
0.03125 0.0625 0
0.03125 0.03125 0
0.0625 0.03125 0
0.03125 0.0625 0
0.0625 0.0625 0
0.0625 0 0
0.09375 0 0
0.0625 0.03125 0
0.09375 0.03125 0
0.09375 0 0
0.125 0 0
0.09375 0.03125 0
0.125 0.03125 0
0.0625 0.03125 0
0.09375 0.03125 0
0.0625 0.0625 0
0.09375 0.0625 0
0.09375 0.03125 0
0.125 0.03125 0
0.09375 0.0625 0
0.125 0.0625 0
0 0.0625 0
0.03125 0.0625 0
0 0.09375 0
0.03125 0.09375 0
0.03125 0.0625 0
0.0625 0.0625 0
0.03125 0.09375 0
0.0625 0.09375 0
0 0.09375 0
0.03125 0.09375 0
0 0.125 0
0.03125 0.125 0
0.03125 0.09375 0
0.0625 0.09375 0
0.03125 0.125 0
0.0625 0.125 0
0.0625 0.0625 0
0.09375 0.0625 0
0.0625 0.09375 0
0.09375 0.09375 0
0.09375 0.0625 0
0.125 0.0625 0
0.09375 0.09375 0
0.125 0.09375 0
0.0625 0.09375 0
0.09375 0.09375 0
0.0625 0.125 0
0.09375 0.125 0
0.09375 0.09375 0
0.125 0.09375 0
0.09375 0.125 0
0.125 0.125 0
0.125 0 0
0.15625 0 0
0.125 0.03125 0
0.15625 0.03125 0
0.15625 0 0
0.1875 0 0
0.15625 0.03125 0
0.1875 0.03125 0
0.125 0.03125 0
0.15625 0.03125 0
0.125 0.0625 0
0.15625 0.0625 0
0.15625 0.03125 0
0.1875 0.03125 0
0.15625 0.0625 0
0.1875 0.0625 0
0.1875 0 0
0.21875 0 0
0.1875 0.03125 0
0.21875 0.03125 0
0.21875 0 0
0.25 0 0
0.21875 0.03125 0
0.25 0.03125 0
0.1875 0.03125 0
0.21875 0.03125 0
0.1875 0.0625 0
0.21875 0.0625 0
0.21875 0.03125 0
0.25 0.03125 0
0.21875 0.0625 0
0.25 0.0625 0
0.125 0.0625 0
0.15625 0.0625 0
0.125 0.09375 0
0.15625 0.09375 0
0.15625 0.0625 0
0.1875 0.0625 0
0.15625 0.09375 0
0.1875 0.09375 0
0.125 0.09375 0
0.15625 0.09375 0
0.125 0.125 0
0.15625 0.125 0
0.15625 0.09375 0
0.1875 0.09375 0
0.15625 0.125 0
0.1875 0.125 0
0.1875 0.0625 0
0.21875 0.0625 0
0.1875 0.09375 0
0.21875 0.09375 0
0.21875 0.0625 0
0.25 0.0625 0
0.21875 0.09375 0
0.25 0.09375 0
0.1875 0.09375 0
0.21875 0.09375 0
0.1875 0.125 0
0.21875 0.125 0
0.21875 0.09375 0
0.25 0.09375 0
0.21875 0.125 0
0.25 0.125 0
0 0.125 0
0.03125 0.125 0
0 0.15625 0
0.03125 0.15625 0
0.03125 0.125 0
0.0625 0.125 0
0.03125 0.15625 0
0.0625 0.15625 0
0 0.15625 0
0.03125 0.15625 0
0 0.1875 0
0.03125 0.1875 0
0.03125 0.15625 0
0.0625 0.15625 0
0.03125 0.1875 0
0.0625 0.1875 0
0.0625 0.125 0
0.09375 0.125 0
0.0625 0.15625 0
0.09375 0.15625 0
0.09375 0.125 0
0.125 0.125 0
0.09375 0.15625 0
0.125 0.15625 0
0.0625 0.15625 0
0.09375 0.15625 0
0.0625 0.1875 0
0.09375 0.1875 0
0.09375 0.15625 0
0.125 0.15625 0
0.09375 0.1875 0
0.125 0.1875 0
0 0.1875 0
0.03125 0.1875 0
0 0.21875 0
0.03125 0.21875 0
0.03125 0.1875 0
0.0625 0.1875 0
0.03125 0.21875 0
0.0625 0.21875 0
0 0.21875 0
0.03125 0.21875 0
0 0.25 0
0.03125 0.25 0
0.03125 0.21875 0
0.0625 0.21875 0
0.03125 0.25 0
0.0625 0.25 0
0.0625 0.1875 0
0.09375 0.1875 0
0.0625 0.21875 0
0.09375 0.21875 0
0.09375 0.1875 0
0.125 0.1875 0
0.09375 0.21875 0
0.125 0.21875 0
0.0625 0.21875 0
0.09375 0.21875 0
0.0625 0.25 0
0.09375 0.25 0
0.09375 0.21875 0
0.125 0.21875 0
0.09375 0.25 0
0.125 0.25 0
0.125 0.125 0
0.15625 0.125 0
0.125 0.15625 0
0.15625 0.15625 0
0.15625 0.125 0
0.1875 0.125 0
0.15625 0.15625 0
0.1875 0.15625 0
0.125 0.15625 0
0.15625 0.15625 0
0.125 0.1875 0
0.15625 0.1875 0
0.15625 0.15625 0
0.1875 0.15625 0
0.15625 0.1875 0
0.1875 0.1875 0
0.1875 0.125 0
0.21875 0.125 0
0.1875 0.15625 0
0.21875 0.15625 0
0.21875 0.125 0
0.25 0.125 0
0.21875 0.15625 0
0.25 0.15625 0
0.1875 0.15625 0
0.21875 0.15625 0
0.1875 0.1875 0
0.21875 0.1875 0
0.21875 0.15625 0
0.25 0.15625 0
0.21875 0.1875 0
0.25 0.1875 0
0.125 0.1875 0
0.15625 0.1875 0
0.125 0.21875 0
0.15625 0.21875 0
0.15625 0.1875 0
0.1875 0.1875 0
0.15625 0.21875 0
0.1875 0.21875 0
0.125 0.21875 0
0.15625 0.21875 0
0.125 0.25 0
0.15625 0.25 0
0.15625 0.21875 0
0.1875 0.21875 0
0.15625 0.25 0
0.1875 0.25 0
0.1875 0.1875 0
0.21875 0.1875 0
0.1875 0.21875 0
0.21875 0.21875 0
0.21875 0.1875 0
0.25 0.1875 0
0.21875 0.21875 0
0.25 0.21875 0
0.1875 0.21875 0
0.21875 0.21875 0
0.1875 0.25 0
0.21875 0.25 0
0.21875 0.21875 0
0.25 0.21875 0
0.21875 0.25 0
0.25 0.25 0
0.25 0 0
0.28125 0 0
0.25 0.03125 0
0.28125 0.03125 0
0.28125 0 0
0.3125 0 0
0.28125 0.03125 0
0.3125 0.03125 0
0.25 0.03125 0
0.28125 0.03125 0
0.25 0.0625 0
0.28125 0.0625 0
0.28125 0.03125 0
0.3125 0.03125 0
0.28125 0.0625 0
0.3125 0.0625 0
0.3125 0 0
0.34375 0 0
0.3125 0.03125 0
0.34375 0.03125 0
0.34375 0 0
0.375 0 0
0.34375 0.03125 0
0.375 0.03125 0
0.3125 0.03125 0
0.34375 0.03125 0
0.3125 0.0625 0
0.34375 0.0625 0
0.34375 0.03125 0
0.375 0.03125 0
0.34375 0.0625 0
0.375 0.0625 0
0.25 0.0625 0
0.28125 0.0625 0
0.25 0.09375 0
0.28125 0.09375 0
0.28125 0.0625 0
0.3125 0.0625 0
0.28125 0.09375 0
0.3125 0.09375 0
0.25 0.09375 0
0.28125 0.09375 0
0.25 0.125 0
0.28125 0.125 0
0.28125 0.09375 0
0.3125 0.09375 0
0.28125 0.125 0
0.3125 0.125 0
0.3125 0.0625 0
0.34375 0.0625 0
0.3125 0.09375 0
0.34375 0.09375 0
0.34375 0.0625 0
0.375 0.0625 0
0.34375 0.09375 0
0.375 0.09375 0
0.3125 0.09375 0
0.34375 0.09375 0
0.3125 0.125 0
0.34375 0.125 0
0.34375 0.09375 0
0.375 0.09375 0
0.34375 0.125 0
0.375 0.125 0
0.375 0 0
0.40625 0 0
0.375 0.03125 0
0.40625 0.03125 0
0.40625 0 0
0.4375 0 0
0.40625 0.03125 0
0.4375 0.03125 0
0.375 0.03125 0
0.40625 0.03125 0
0.375 0.0625 0
0.40625 0.0625 0
0.40625 0.03125 0
0.4375 0.03125 0
0.40625 0.0625 0
0.4375 0.0625 0
0.4375 0 0
0.46875 0 0
0.4375 0.03125 0
0.46875 0.03125 0
0.46875 0 0
0.5 0 0
0.46875 0.03125 0
0.5 0.03125 0
0.4375 0.03125 0
0.46875 0.03125 0
0.4375 0.0625 0
0.46875 0.0625 0
0.46875 0.03125 0
0.5 0.03125 0
0.46875 0.0625 0
0.5 0.0625 0
0.375 0.0625 0
0.40625 0.0625 0
0.375 0.09375 0
0.40625 0.09375 0
0.40625 0.0625 0
0.4375 0.0625 0
0.40625 0.09375 0
0.4375 0.09375 0
0.375 0.09375 0
0.40625 0.09375 0
0.375 0.125 0
0.40625 0.125 0
0.40625 0.09375 0
0.4375 0.09375 0
0.40625 0.125 0
0.4375 0.125 0
0.4375 0.0625 0
0.46875 0.0625 0
0.4375 0.09375 0
0.46875 0.09375 0
0.46875 0.0625 0
0.5 0.0625 0
0.46875 0.09375 0
0.5 0.09375 0
0.4375 0.09375 0
0.46875 0.09375 0
0.4375 0.125 0
0.46875 0.125 0
0.46875 0.09375 0
0.5 0.09375 0
0.46875 0.125 0
0.5 0.125 0
0.25 0.125 0
0.28125 0.125 0
0.25 0.15625 0
0.28125 0.15625 0
0.28125 0.125 0
0.3125 0.125 0
0.28125 0.15625 0
0.3125 0.15625 0
0.25 0.15625 0
0.28125 0.15625 0
0.25 0.1875 0
0.28125 0.1875 0
0.28125 0.15625 0
0.3125 0.15625 0
0.28125 0.1875 0
0.3125 0.1875 0
0.3125 0.125 0
0.34375 0.125 0
0.3125 0.15625 0
0.34375 0.15625 0
0.34375 0.125 0
0.375 0.125 0
0.34375 0.15625 0
0.375 0.15625 0
0.3125 0.15625 0
0.34375 0.15625 0
0.3125 0.1875 0
0.34375 0.1875 0
0.34375 0.15625 0
0.375 0.15625 0
0.34375 0.1875 0
0.375 0.1875 0
0.25 0.1875 0
0.28125 0.1875 0
0.25 0.21875 0
0.28125 0.21875 0
0.28125 0.1875 0
0.3125 0.1875 0
0.28125 0.21875 0
0.3125 0.21875 0
0.25 0.21875 0
0.28125 0.21875 0
0.25 0.25 0
0.28125 0.25 0
0.28125 0.21875 0
0.3125 0.21875 0
0.28125 0.25 0
0.3125 0.25 0
0.3125 0.1875 0
0.34375 0.1875 0
0.3125 0.21875 0
0.34375 0.21875 0
0.34375 0.1875 0
0.375 0.1875 0
0.34375 0.21875 0
0.375 0.21875 0
0.3125 0.21875 0
0.34375 0.21875 0
0.3125 0.25 0
0.34375 0.25 0
0.34375 0.21875 0
0.375 0.21875 0
0.34375 0.25 0
0.375 0.25 0
0.375 0.125 0
0.40625 0.125 0
0.375 0.15625 0
0.40625 0.15625 0
0.40625 0.125 0
0.4375 0.125 0
0.40625 0.15625 0
0.4375 0.15625 0
0.375 0.15625 0
0.40625 0.15625 0
0.375 0.1875 0
0.40625 0.1875 0
0.40625 0.15625 0
0.4375 0.15625 0
0.40625 0.1875 0
0.4375 0.1875 0
0.4375 0.125 0
0.46875 0.125 0
0.4375 0.15625 0
0.46875 0.15625 0
0.46875 0.125 0
0.5 0.125 0
0.46875 0.15625 0
0.5 0.15625 0
0.4375 0.15625 0
0.46875 0.15625 0
0.4375 0.1875 0
0.46875 0.1875 0
0.46875 0.15625 0
0.5 0.15625 0
0.46875 0.1875 0
0.5 0.1875 0
0.375 0.1875 0
0.40625 0.1875 0
0.375 0.21875 0
0.40625 0.21875 0
0.40625 0.1875 0
0.4375 0.1875 0
0.40625 0.21875 0
0.4375 0.21875 0
0.375 0.21875 0
0.40625 0.21875 0
0.375 0.25 0
0.40625 0.25 0
0.40625 0.21875 0
0.4375 0.21875 0
0.40625 0.25 0
0.4375 0.25 0
0.4375 0.1875 0
0.46875 0.1875 0
0.4375 0.21875 0
0.46875 0.21875 0
0.46875 0.1875 0
0.5 0.1875 0
0.46875 0.21875 0
0.5 0.21875 0
0.4375 0.21875 0
0.46875 0.21875 0
0.4375 0.25 0
0.46875 0.25 0
0.46875 0.21875 0
0.5 0.21875 0
0.46875 0.25 0
0.5 0.25 0
0 0.25 0
0.03125 0.25 0
0 0.28125 0
0.03125 0.28125 0
0.03125 0.25 0
0.0625 0.25 0
0.03125 0.28125 0
0.0625 0.28125 0
0 0.28125 0
0.03125 0.28125 0
0 0.3125 0
0.03125 0.3125 0
0.03125 0.28125 0
0.0625 0.28125 0
0.03125 0.3125 0
0.0625 0.3125 0
0.0625 0.25 0
0.09375 0.25 0
0.0625 0.28125 0
0.09375 0.28125 0
0.09375 0.25 0
0.125 0.25 0
0.09375 0.28125 0
0.125 0.28125 0
0.0625 0.28125 0
0.09375 0.28125 0
0.0625 0.3125 0
0.09375 0.3125 0
0.09375 0.28125 0
0.125 0.28125 0
0.09375 0.3125 0
0.125 0.3125 0
0 0.3125 0
0.03125 0.3125 0
0 0.34375 0
0.03125 0.34375 0
0.03125 0.3125 0
0.0625 0.3125 0
0.03125 0.34375 0
0.0625 0.34375 0
0 0.34375 0
0.03125 0.34375 0
0 0.375 0
0.03125 0.375 0
0.03125 0.34375 0
0.0625 0.34375 0
0.03125 0.375 0
0.0625 0.375 0
0.0625 0.3125 0
0.09375 0.3125 0
0.0625 0.34375 0
0.09375 0.34375 0
0.09375 0.3125 0
0.125 0.3125 0
0.09375 0.34375 0
0.125 0.34375 0
0.0625 0.34375 0
0.09375 0.34375 0
0.0625 0.375 0
0.09375 0.375 0
0.09375 0.34375 0
0.125 0.34375 0
0.09375 0.375 0
0.125 0.375 0
0.125 0.25 0
0.15625 0.25 0
0.125 0.28125 0
0.15625 0.28125 0
0.15625 0.25 0
0.1875 0.25 0
0.15625 0.28125 0
0.1875 0.28125 0
0.125 0.28125 0
0.15625 0.28125 0
0.125 0.3125 0
0.15625 0.3125 0
0.15625 0.28125 0
0.1875 0.28125 0
0.15625 0.3125 0
0.1875 0.3125 0
0.1875 0.25 0
0.21875 0.25 0
0.1875 0.28125 0
0.21875 0.28125 0
0.21875 0.25 0
0.25 0.25 0
0.21875 0.28125 0
0.25 0.28125 0
0.1875 0.28125 0
0.21875 0.28125 0
0.1875 0.3125 0
0.21875 0.3125 0
0.21875 0.28125 0
0.25 0.28125 0
0.21875 0.3125 0
0.25 0.3125 0
0.125 0.3125 0
0.15625 0.3125 0
0.125 0.34375 0
0.15625 0.34375 0
0.15625 0.3125 0
0.1875 0.3125 0
0.15625 0.34375 0
0.1875 0.34375 0
0.125 0.34375 0
[...]
POINT_DATA 4096
SCALARS p double 1
LOOKUP_TABLE default
-2.88193e-07 -4.77199e-05 4.64447e-05 -8.42223e-08 -4.77199e-05 -0.000582763 -8.42223e-08 -0.00038784 4.64447e-05 -8.42223e-08 0.000580229 0.00038706 -8.42223e-08 -0.00038784 0.00038706 -4.43855e-06 -0.000582763 -0.00169865 -0.00038784 -0.00124784 -0.00169865 -0.0033845 -0.00124784 -0.00255118 -0.00038784 -0.00124784 -4.43855e-06 -0.000998166 -0.00124784 -0.00255118 -0.000998166 -0.00248065 0.000580229 0.00038706 0.0017057 0.00125387 0.00038706 -4.43855e-06 0.00125387 0.000979997 0.0017057 0.00125387 0.00343661 0.00259028 0.00125387 0.000979997 0.00259028 0.00247336 -4.43855e-06 -0.000998166 0.000979997 -3.33638e-05 -0.000998166 -0.00248065 -3.33638e-05 -0.00152294 0.000979997 -3.33638e-05 0.00247336 0.0014064 -3.33638e-05 -0.00152294 0.0014064 -0.000129172 -0.0033845 -0.00561797 -0.00255118 -0.00428516 -0.00561797 -0.00837452 -0.00428516 -0.00643085 -0.00255118 -0.00428516 -0.00248065 -0.00444721 -0.00428516 -0.00643085 -0.00444721 -0.00687679 -0.00837452 -0.0116244 -0.00643085 -0.00896504 -0.0116244 -0.0153326 -0.00896504 -0.0118605 -0.00643085 -0.00896504 -0.00687679 -0.00974307 -0.00896504 -0.0118605 -0.00974307 -0.0130152 -0.00248065 -0.00444721 -0.00152294 -0.00349987 -0.00444721 -0.00687679 -0.00349987 -0.00594301 -0.00152294 -0.00349987 -0.000129172 -0.00216693 -0.00349987 -0.00594301 -0.00216693 -0.00468514 -0.00687679 -0.00974307 -0.00594301 -0.00882573 -0.00974307 -0.0130152 -0.00882573 -0.0121169 -0.00594301 -0.00882573 -0.00468514 -0.00765595 -0.00882573 -0.0121169 -0.00765595 -0.0110471 0.00343661 0.00259028 0.00578809 0.00441257 0.00259028 0.00247336 0.00441257 0.00450358 0.00578809 0.00441257 0.00878582 0.00674076 0.00441257 0.00450358 0.00674076 0.00709334 0.00247336 0.0014064 0.00450358 0.00336418 0.0014064 -0.000129172 0.00336418 0.00176539 0.00450358 0.00336418 0.00709334 0.00586186 0.00336418 0.00176539 0.00586186 0.00418195 0.00878582 0.00674076 0.0124629 0.00960061 0.00674076 0.00709334 0.00960061 0.0102712 0.0124629 0.00960061 0.0168604 0.0130241 0.00960061 0.0102712 0.0130241 0.0140727 0.00709334 0.00586186 0.0102712 0.00892677 0.00586186 0.00418195 0.00892677 0.00714637 0.0102712 0.00892677 0.0140727 0.0125928 0.00892677 0.00714637 0.0125928 0.0106909 -0.000129172 -0.00216693 0.00176539 -0.00035584 -0.00216693 -0.00468514 -0.00035584 -0.00297697 0.00176539 -0.00035584 0.00418195 0.00195373 -0.00035584 -0.00297697 0.00195373 -0.000799139 -0.00468514 -0.00765595 -0.00297697 -0.00606849 -0.00765595 -0.0110471 -0.00606849 -0.00959649 -0.00297697 -0.00606849 -0.000799139 -0.00404503 -0.00606849 -0.00959649 -0.00404503 -0.00774782 0.00418195 0.00195373 0.00714637 0.00478591 0.00195373 -0.000799139 0.00478591 0.0018704 0.00714637 0.00478591 0.0106909 0.00817077 0.00478591 0.0018704 0.00817077 0.00505924 -0.000799139 -0.00404503 0.0018704 -0.00156583 -0.00404503 -0.00774782 -0.00156583 -0.00548392 0.0018704 -0.00156583 0.00505924 0.00139392 -0.00156583 -0.00548392 0.00139392 -0.00278291 -0.0153326 -0.0194598 -0.0118605 -0.0150863 -0.0194598 -0.0239624 -0.0150863 -0.0186083 -0.0118605 -0.0150863 -0.0130152 -0.0166582 -0.0150863 -0.0186083 -0.0166582 -0.0206335 -0.0239624 -0.028793 -0.0186083 -0.0223893 -0.028793 -0.0339013 -0.0223893 -0.02639 -0.0186083 -0.0223893 -0.0206335 -0.0248994 -0.0223893 -0.02639 -0.0248994 -0.0294112 -0.0130152 -0.0166582 -0.0121169 -0.0157812 -0.0166582 -0.0206335 -0.0157812 -0.0197796 -0.0121169 -0.0157812 -0.0110471 -0.0148219 -0.0157812 -0.0197796 -0.0148219 -0.0189402 -0.0206335 -0.0248994 -0.0197796 -0.0240702 -0.0248994 -0.0294112 -0.0240702 -0.028608 -0.0197796 -0.0240702 -0.0189402 -0.0233585 -0.0240702 -0.028608 -0.0233585 -0.0280306 -0.0339013 -0.0392343 -0.02639 -0.0305686 -0.0392343 -0.0447372 -0.0305686 -0.0348819 -0.02639 -0.0305686 -0.0294112 -0.0341222 -0.0305686 -0.0348819 -0.0341222 -0.0389837 -0.0447372 -0.0503536 -0.0348819 -0.0392854 -0.0503536 -0.0560259 -0.0392854 -0.043734 -0.0348819 -0.0392854 -0.0389837 -0.0439458 -0.0392854 -0.043734 -0.0439458 -0.0489577 -0.0294112 -0.0341222 -0.028608 -0.0333458 -0.0341222 -0.0389837 -0.0333458 -0.0382348 -0.028608 -0.0333458 -0.0280306 -0.0329079 -0.0333458 -0.0382348 -0.0329079 -0.0379403 -0.0389837 -0.0439458 -0.0382348 -0.0432249 -0.0439458 -0.0489577 -0.0432249 -0.048265 -0.0382348 -0.0432249 -0.0379403 -0.0430763 -0.0432249 -0.048265 -0.0430763 -0.0482634 -0.0110471 -0.0148219 -0.00959649 -0.0135226 -0.0148219 -0.0189402 -0.0135226 -0.0178047 -0.00959649 -0.0135226 -0.00774782 -0.0118669 -0.0135226 -0.0178047 -0.0118669 -0.0163579 -0.0189402 -0.0233585 -0.0178047 -0.0223975 -0.0233585 -0.0280306 -0.0223975 -0.0272529 -0.0178047 -0.0223975 -0.0163579 -0.0211729 -0.0223975 -0.0272529 -0.0211729 -0.0262614 -0.00774782 -0.0118669 -0.00548392 -0.00984036 -0.0118669 -0.0163579 -0.00984036 -0.0145878 -0.00548392 -0.00984036 -0.00278291 -0.00742413 -0.00984036 -0.0145878 -0.00742413 -0.0124786 -0.0163579 -0.0211729 -0.0145878 -0.0196753 -0.0211729 -0.0262614 -0.0196753 -0.0250496 -0.0145878 -0.0196753 -0.0124786 -0.017892 -0.0196753 -0.0250496 -0.017892 -0.0236073 -0.0280306 -0.0329079 -0.0272529 -0.0323205 -0.0329079 -0.0379403 -0.0323205 -0.0375482 -0.0272529 -0.0323205 -0.0262614 -0.0315708 -0.0323205 -0.0375482 -0.0315708 -0.0370467 -0.0379403 -0.0430763 -0.0375482 -0.0428828 -0.0430763 -0.0482634 -0.0428828 -0.0482702 -0.0375482 -0.0428828 -0.0370467 -0.0426334 -0.0428828 -0.0482702 -0.0426334 -0.0482749 -0.0262614 -0.0315708 -0.0250496 -0.0306549 -0.0315708 -0.0370467 -0.0306549 -0.0364342 -0.0250496 -0.0306549 -0.0236073 -0.0295655 -0.0306549 -0.0364342 -0.0295655 -0.0357063 -0.0370467 -0.0426334 -0.0364342 -0.0423292 -0.0426334 -0.0482749 -0.0423292 -0.0482811 -0.0364342 -0.0423292 -0.0357063 -0.0419682 -0.0423292 -0.0482811 -0.0419682 -0.0482894 0.0168604 0.0130241 0.0220281 0.0170499 0.0130241 0.0140727 0.0170499 0.0185405 0.0220281 0.0170499 0.0280254 0.0217243 0.0170499 0.0185405 0.0217243 0.0237256 0.0140727 0.0125928 0.0185405 0.0169006 0.0125928 0.0106909 0.0169006 0.0148542 0.0185405 0.0169006 0.0237256 0.0218987 0.0169006 0.0148542 0.0218987 0.0196821 0.0280254 0.0217243 0.0349222 0.0271017 0.0217243 0.0237256 0.0271017 0.0296882 0.0349222 0.0271017 0.0428007 0.0332459 0.0271017 0.0296882 0.0332459 0.0364984 0.0237256 0.0218987 0.0296882 0.027644 0.0218987 0.0196821 0.027644 0.025228 0.0296882 0.027644 0.0364984 0.0342028 0.027644 0.025228 0.0342028 0.0315542 0.0106909 0.00817077 0.0148542 0.0121443 0.00817077 0.00505924 0.0121443 0.00880027 0.0148542 0.0121443 0.0196821 0.0167491 0.0121443 0.00880027 0.0167491 0.0131321 0.00505924 0.00139392 0.00880027 0.00486374 0.00139392 -0.00278291 0.00486374 0.000381234 0.00880027 0.00486374 0.0131321 0.00887794 0.00486374 0.000381234 0.00887794 0.00403838 0.0196821 0.0167491 0.025228 0.0220344 0.0167491 0.0131321 0.0220344 0.0180993 0.025228 0.0220344 0.0315542 0.0280571 0.0220344 0.0180993 0.0280571 0.0237527 0.0131321 0.00887794 0.0180993 0.0134759 0.00887794 0.00403838 0.0134759 0.00822258 0.0180993 0.0134759 0.0237527 0.0187022 0.0134759 0.00822258 0.0187022 0.0129719 0.0428007 0.0332459 0.0517572 0.0402318 0.0332459 0.0364984 0.0402318 0.0442386 0.0517572 0.0402318 0.0619042 0.048147 0.0402318 0.0442386 0.048147 0.0530049 0.0364984 0.0342028 0.0442386 0.0416527 0.0342028 0.0315542 0.0416527 0.0387326 0.0442386 0.0416527 0.0530049 0.0500835 0.0416527 0.0387326 0.0500835 0.0468461 0.0619042 0.048147 0.0733744 0.0570944 0.048147 0.0530049 0.0570944 0.0629098 0.0733744 0.0570944 0.0863242 0.0671953 0.0570944 0.0629098 0.0671953 0.0740858 0.0530049 0.0500835 0.0629098 0.0595996 0.0500835 0.0468461 0.0595996 0.05599 0.0629098 0.0595996 0.0740858 0.0703231 0.0595996 0.05599 0.0703231 0.066274 0.0315542 0.0280571 0.0387326 0.0348823 0.0280571 0.0237527 0.0348823 0.0301499 0.0387326 0.0348823 0.0468461 0.0425846 0.0348823 0.0301499 0.0425846 0.0373559 0.0237527 0.0187022 0.0301499 0.0246065 0.0187022 0.0129719 0.0246065 0.0183281 0.0301499 0.0246065 0.0373559 0.0312439 0.0246065 0.0183281 0.0312439 0.0243367 0.0468461 0.0425846 0.05599 0.051248 0.0425846 0.0373559 0.051248 0.0454429 0.05599 0.051248 0.066274 0.0609681 0.051248 0.0454429 0.0609681 0.0544906 0.0373559 0.0312439 0.0454429 0.0386742 0.0312439 0.0243367 0.0386742 0.0310457 0.0454429 0.0386742 0.0544906 0.046962 0.0386742 0.0310457 0.046962 0.0385053 -0.00278291 -0.00742413 0.000381234 -0.00459576 -0.00742413 -0.0124786 -0.00459576 -0.0100116 0.000381234 -0.00459576 0.00403838 -0.00132979 -0.00459576 -0.0100116 -0.00132979 -0.00716573 -0.0124786 -0.017892 -0.0100116 -0.0158077 -0.017892 -0.0236073 -0.0158077 -0.0219229 -0.0100116 -0.0158077 -0.00716573 -0.0134055 -0.0158077 -0.0219229 -0.0134055 -0.0199832 0.00403838 -0.00132979 0.00822258 0.00240252 -0.00132979 -0.00716573 0.00240252 -0.00391714 0.00822258 0.00240252 0.0129719 0.00663285 0.00240252 -0.00391714 0.00663285 -0.000240186 -0.00716573 -0.0134055 -0.00391714 -0.0106664 -0.0134055 -0.0199832 -0.0106664 -0.0177739 -0.00391714 -0.0106664 -0.000240186 -0.0075703 -0.0106664 -0.0177739 -0.0075703 -0.0152797 -0.0236073 -0.0295655 -0.0219229 -0.0282942 -0.0295655 -0.0357063 -0.0282942 -0.0348575 -0.0219229 -0.0282942 -0.0199832 -0.0268313 -0.0282942 -0.0348575 -0.0268313 -0.0338818 -0.0357063 -0.0419682 -0.0348575 -0.0415479 -0.0419682 -0.0482894 -0.0415479 -0.0483003 -0.0348575 -0.0415479 -0.0338818 -0.0410657 -0.0415479 -0.0483003 -0.0410657 -0.0483143 -0.0199832 -0.0268313 -0.0177739 -0.025167 -0.0268313 -0.0338818 -0.025167 -0.032773 -0.0177739 -0.025167 -0.0152797 -0.0232903 -0.025167 -0.032773 -0.0232903 -0.0315244 -0.0338818 -0.0410657 -0.032773 -0.040519 -0.0410657 -0.0483143 -0.040519 -0.0483323 -0.032773 -0.040519 -0.0315244 -0.0399049 -0.040519 -0.0483323 -0.0399049 -0.048355 0.0129719 0.00663285 0.0183281 0.0113955 0.00663285 -0.000240186 0.0113955 0.00389239 0.0183281 0.0113955 0.0243367 0.0167268 0.0113955 0.00389239 0.0167268 0.00850878 -0.000240186 -0.0075703 0.00389239 -0.00409623 -0.0075703 -0.0152797 -0.00409623 -0.0124854 0.00389239 -0.00409623 0.00850878 -0.000223033 -0.00409623 -0.0124854 -0.000223033 -0.00937577 0.0243367 0.0167268 0.0310457 0.0226643 0.0167268 0.00850878 0.0226643 0.0136371 0.0310457 0.0226643 0.0385053 0.0292452 0.0226643 0.0136371 0.0292452 0.0193039 0.00850878 -0.000223033 0.0136371 0.00406946 -0.000223033 -0.00937577 0.00406946 -0.00593711 0.0136371 0.00406946 0.0193039 0.00879901 0.00406946 -0.00593711 0.00879901 -0.00215837 -0.0152797 -0.0232903 -0.0124854 -0.0211908 -0.0232903 -0.0315244 -0.0211908 -0.03013 -0.0124854 -0.0211908 -0.00937577 -0.0188587 -0.0211908 -0.03013 -0.0188587 -0.0285838 -0.0315244 -0.0399049 -0.03013 -0.039221 -0.0399049 -0.048355 -0.039221 -0.0483837 -0.03013 -0.039221 -0.0285838 -0.0384654 -0.039221 -0.0483837 -0.0384654 -0.0484198 -0.00937577 -0.0188587 -0.00593711 -0.0162851 -0.0188587 -0.0285838 -0.0162851 -0.0268815 -0.00593711 -0.0162851 -0.00215837 -0.0134641 -0.0162851 -0.0268815 -0.0134641 -0.0250206 -0.0285838 -0.0384654 -0.0268815 -0.037637 -0.0384654 -0.0484198 -0.037637 -0.048465 -0.0268815 -0.037637 -0.0250206 -0.0367357 -0.037637 -0.048465 -0.0367357 -0.0485216 -0.0560259 -0.0616963 -0.043734 -0.048182 -0.0616963 -0.0673072 -0.048182 -0.0525839 -0.043734 -0.048182 -0.0489577 -0.0539682 -0.048182 -0.0525839 -0.0539682 -0.0589264 -0.0673072 -0.0728015 -0.0525839 -0.0568945 -0.0728015 -0.078123 -0.0568945 -0.0610696 -0.0525839 -0.0568945 -0.0589264 -0.0637816 -0.0568945 -0.0610696 -0.0637816 -0.0684843 -0.0489577 -0.0539682 -0.048265 -0.0533038 -0.0539682 -0.0589264 -0.0533038 -0.05829 -0.048265 -0.0533038 -0.0482634 -0.0534492 -0.0533038 -0.05829 -0.0534492 -0.058581 -0.0589264 -0.0637816 -0.05829 -0.0631729 -0.0637816 -0.0684843 -0.0631729 -0.0679026 -0.05829 -0.0631729 -0.058581 -0.0636066 -0.0631729 -0.0679026 -0.0636066 -0.0684751 -0.078123 -0.0832174 -0.0610696 -0.0650662 -0.0832174 -0.0880325 -0.0650662 -0.068843 -0.0610696 -0.0650662 -0.0684843 -0.0729861 -0.0650662 -0.068843 -0.0729861 -0.0772409 -0.0880325 -0.0925186 -0.068843 -0.0723606 -0.0925186 -0.0966293 -0.0723606 -0.0755824 -0.068843 -0.0723606 -0.0772409 -0.0812047 -0.0723606 -0.0755824 -0.0812047 -0.0848361 -0.0684843 -0.0729861 -0.0679026 -0.0724305 -0.0729861 -0.0772409 -0.0724305 -0.0767102 -0.0679026 -0.0724305 -0.0684751 -0.0731366 -0.0724305 -0.0767102 -0.0731366 -0.0775432 -0.0772409 -0.0812047 -0.0767102 -0.0806973 -0.0812047 -0.0848361 -0.0806973 -0.0843501 -0.0767102 -0.0806973 -0.0775432 -0.0816491 -0.0806973 -0.0843501 -0.0816491 -0.0854115 -0.0482634 -0.0534492 -0.0482702 -0.053656 -0.0534492 -0.058581 -0.053656 -0.0589859 -0.0482702 -0.053656 -0.0482749 -0.0539145 -0.053656 -0.0589859 -0.0539145 -0.0594958 -0.058581 -0.0636066 -0.0589859 -0.064206 -0.0636066 -0.0684751 -0.064206 -0.0692636 -0.0589859 -0.064206 -0.0594958 -0.0649627 -0.064206 -0.0692636 -0.0649627 -0.0702604 -0.0482749 -0.0539145 -0.0482811 -0.0542307 -0.0539145 -0.0594958 -0.0542307 -0.0601191 -0.0482811 -0.0542307 -0.0482894 -0.0546079 -0.0542307 -0.0601191 -0.0546079 -0.0608617 -0.0594958 -0.0649627 -0.0601191 -0.0658878 -0.0649627 -0.0702604 -0.0658878 -0.071479 -0.0601191 -0.0658878 -0.0608617 -0.0669895 -0.0658878 -0.071479 -0.0669895 -0.0729305 -0.0684751 -0.0731366 -0.0692636 -0.0741069 -0.0731366 -0.0775432 -0.0741069 -0.0786863 -0.0692636 -0.0741069 -0.0702604 -0.0753348 -0.0741069 -0.0786863 -0.0753348 -0.0801341 -0.0775432 -0.0816491 -0.0786863 -0.0829543 -0.0816491 -0.0854115 -0.0829543 -0.0868663 -0.0786863 -0.0829543 -0.0801341 -0.0846085 -0.0829543 -0.0868663 -0.0846085 -0.0887111 -0.0702604 -0.0753348 -0.071479 -0.0768362 -0.0753348 -0.0801341 -0.0768362 -0.0819049 -0.071479 -0.0768362 -0.0729305 -0.0786251 -0.0768362 -0.0819049 -0.0786251 -0.0840155 -0.0801341 -0.0846085 -0.0819049 -0.0866325 -0.0846085 -0.0887111 -0.0866325 -0.0909692 -0.0819049 -0.0866325 -0.0840155 -0.0890458 -0.0866325 -0.0909692 -0.0890458 -0.0936628 -0.0966293 -0.100322 -0.0755824 -0.0784747 -0.100322 -0.103558 -0.0784747 -0.081007 -0.0755824 -0.0784747 -0.0848361 -0.0880973 -0.0784747 -0.081007 -0.0880973 -0.0909537 -0.103558 -0.106306 -0.081007 -0.0831515 -0.106306 -0.108531 -0.0831515 -0.0848958 -0.081007 -0.0831515 -0.0909537 -0.0933753 -0.0831515 -0.0848958 -0.0933753 -0.0953179 -0.0848361 -0.0880973 -0.0843501 -0.0876304 -0.0880973 -0.0909537 -0.0876304 -0.0905032 -0.0843501 -0.0876304 -0.0854115 -0.0887907 -0.0876304 -0.0905032 -0.0887907 -0.0917505 -0.0909537 -0.0933753 -0.0905032 -0.0929358 -0.0933753 -0.0953179 -0.0929358 -0.094896 -0.0905032 -0.0929358 -0.0917505 -0.0942583 -0.0929358 -0.094896 -0.0942583 -0.0962798 -0.108531 -0.110414 -0.0848958 -0.086109 -0.110414 -0.111123 -0.086109 -0.0885234 -0.0848958 -0.086109 -0.0953179 -0.0968033 -0.086109 -0.0885234 -0.0968033 -0.0990983 -0.111123 -0.105836 -0.0885234 -0.0785241 -0.105836 -0.117833 -0.0785241 -0.105937 -0.0885234 -0.0785241 -0.0990983 -0.0893177 -0.0785241 -0.105937 -0.0893177 -0.112305 -0.0953179 -0.0968033 -0.094896 -0.0963767 -0.0968033 -0.0990983 -0.0963767 -0.0987735 -0.094896 -0.0963767 -0.0962798 -0.0978167 -0.0963767 -0.0987735 -0.0978167 -0.100254 -0.0990983 -0.0893177 -0.0987735 -0.0886299 -0.0893177 -0.112305 -0.0886299 -0.11383 -0.0987735 -0.0886299 -0.100254 -0.0900564 -0.0886299 -0.11383 -0.0900564 -0.115349 -0.0854115 -0.0887907 -0.0868663 -0.0903809 -0.0887907 -0.0917505 -0.0903809 -0.0934602 -0.0868663 -0.0903809 -0.0887111 -0.0923982 -0.0903809 -0.0934602 -0.0923982 -0.0956302 -0.0917505 -0.0942583 -0.0934602 -0.0960704 -0.0942583 -0.0962798 -0.0960704 -0.0981766 -0.0934602 -0.0960704 -0.0956302 -0.0983709 -0.0960704 -0.0981766 -0.0983709 -0.100583 -0.0887111 -0.0923982 -0.0909692 -0.0948685 -0.0923982 -0.0956302 -0.0948685 -0.0982882 -0.0909692 -0.0948685 -0.0936628 -0.0978168 -0.0948685 -0.0982882 -0.0978168 -0.101462 -0.0956302 -0.0983709 -0.0982882 -0.10119 -0.0983709 -0.100583 -0.10119 -0.103533 -0.0982882 -0.10119 -0.101462 -0.104556 -0.10119 -0.103533 -0.104556 -0.107057 -0.0962798 -0.0978167 -0.0981766 -0.099777 -0.0978167 -0.100254 -0.099777 -0.102293 -0.0981766 -0.099777 -0.100583 -0.102265 -0.099777 -0.102293 -0.102265 -0.10487 -0.100254 -0.0900564 -0.102293 -0.0918659 -0.0900564 -0.115349 -0.0918659 -0.117686 -0.102293 -0.0918659 -0.10487 -0.0941899 -0.0918659 -0.117686 -0.0941899 -0.120662 -0.100583 -0.102265 -0.103533 -0.105313 -0.102265 -0.10487 -0.105313 -0.108029 -0.103533 -0.105313 -0.107057 -0.108957 -0.105313 -0.108029 -0.108957 -0.111807 -0.10487 -0.0941899 -0.108029 -0.0970432 -0.0941899 -0.120662 -0.0970432 -0.124314 -0.108029 -0.0970432 -0.111807 -0.100458 -0.0970432 -0.124314 -0.100458 -0.128679 -0.0482894 -0.0546079 -0.0483003 -0.0550493 -0.0546079 -0.0608617 -0.0550493 -0.0617299 -0.0483003 -0.0550493 -0.0483143 -0.0555588 -0.0550493 -0.0617299 -0.0555588 -0.0627305 -0.0608617 -0.0669895 -0.0617299 -0.0682772 -0.0669895 -0.0729305 -0.0682772 -0.0746273 -0.0617299 -0.0682772 -0.0627305 -0.0697613 -0.0682772 -0.0746273 -0.0697613 -0.0765832 -0.0483143 -0.0555588 -0.0483323 -0.0561404 -0.0555588 -0.0627305 -0.0561404 -0.0638713 -0.0483323 -0.0561404 -0.048355 -0.0567988 -0.0561404 -0.0638713 -0.0567988 -0.0651605 -0.0627305 -0.0697613 -0.0638713 -0.0714529 -0.0697613 -0.0765832 -0.0714529 -0.0788135 -0.0638713 -0.0714529 -0.0651605 -0.0733642 -0.0714529 -0.0788135 -0.0733642 -0.0813344 -0.0729305 -0.0786251 -0.0746273 -0.080717 -0.0786251 -0.0840155 -0.080717 -0.0864847 -0.0746273 -0.080717 -0.0765832 -0.0831294 -0.080717 -0.0864847 -0.0831294 -0.0893339 -0.0840155 -0.0890458 -0.0864847 -0.0918707 -0.0890458 -0.0936628 -0.0918707 -0.0968178 -0.0864847 -0.0918707 -0.0893339 -0.0951327 -0.0918707 -0.0968178 -0.0951327 -0.100464 -0.0765832 -0.0831294 -0.0788135 -0.0858818 -0.0831294 -0.0893339 -0.0858818 -0.0925872 -0.0788135 -0.0858818 -0.0813344 -0.088995 -0.0858818 -0.0925872 -0.088995 -0.0962705 -0.0893339 -0.0951327 -0.0925872 -0.0988604 -0.0951327 -0.100464 -0.0988604 -0.104634 -0.0925872 -0.0988604 -0.0962705 -0.103086 -0.0988604 -0.104634 -0.103086 -0.109366 -0.048355 -0.0567988 -0.0483837 -0.0575385 -0.0567988 -0.0651605 -0.0575385 -0.0666063 -0.0483837 -0.0575385 -0.0484198 -0.0583644 -0.0575385 -0.0666063 -0.0583644 -0.0682171 -0.0651605 -0.0733642 -0.0666063 -0.0755077 -0.0733642 -0.0813344 -0.0755077 -0.0841629 -0.0666063 -0.0755077 -0.0682171 -0.0778956 -0.0755077 -0.0841629 -0.0778956 -0.0873161 -0.0484198 -0.0583644 -0.048465 -0.059281 -0.0583644 -0.0682171 -0.059281 -0.0700008 -0.048465 -0.059281 -0.0485216 -0.0602926 -0.059281 -0.0700008 -0.0602926 -0.0719638 -0.0682171 -0.0778956 -0.0700008 -0.0805394 -0.0778956 -0.0873161 -0.0805394 -0.09081 -0.0700008 -0.0805394 -0.0719638 -0.083449 -0.0805394 -0.09081 -0.083449 -0.0946588 -0.0813344 -0.088995 -0.0841629 -0.0924914 -0.088995 -0.0962705 -0.0924914 -0.100412 -0.0841629 -0.0924914 -0.0873161 -0.0963932 -0.0924914 -0.100412 -0.0963932 -0.10504 -0.0962705 -0.103086 -0.100412 -0.107842 -0.103086 -0.109366 -0.107842 -0.114702 -0.100412 -0.107842 -0.10504 -0.113167 -0.107842 -0.114702 -0.113167 -0.120685 -0.0873161 -0.0963932 -0.09081 -0.100723 -0.0963932 -0.10504 -0.100723 -0.110184 -0.09081 -0.100723 -0.0946588 -0.1055 -0.100723 -0.110184 -0.1055 -0.115872 -0.10504 -0.113167 -0.110184 -0.119098 -0.113167 -0.120685 -0.119098 -0.127364 -0.110184 -0.119098 -0.115872 -0.125672 -0.119098 -0.127364 -0.125672 -0.134787 -0.0936628 -0.0978168 -0.0968178 -0.101272 -0.0978168 -0.101462 -0.101272 -0.105183 -0.0968178 -0.101272 -0.100464 -0.105268 -0.101272 -0.105183 -0.105268 -0.109491 -0.101462 -0.104556 -0.105183 -0.108506 -0.104556 -0.107057 -0.108506 -0.111193 -0.105183 -0.108506 -0.109491 -0.113081 -0.108506 -0.111193 -0.113081 -0.115987 -0.100464 -0.105268 -0.104634 -0.109843 -0.105268 -0.109491 -0.109843 -0.114427 -0.104634 -0.109843 -0.109366 -0.115041 -0.109843 -0.114427 -0.115041 -0.120041 -0.109491 -0.113081 -0.114427 -0.118328 -0.113081 -0.115987 -0.118328 -0.12149 -0.114427 -0.118328 -0.12004