# vtk DataFile Version 3.0
#This file was generated by the deal.II library on 2026/1/5 at 14:19:31
ASCII
DATASET UNSTRUCTURED_GRID

POINTS 4096 double
0 0 0
0.03125 0 0
0 0.03125 0
0.03125 0.03125 0
0.03125 0 0
0.0625 0 0
0.03125 0.03125 0
0.0625 0.03125 0
0 0.03125 0
0.03125 0.03125 0
0 0.0625 0
0.03125 0.0625 0
0.03125 0.03125 0
0.0625 0.03125 0
0.03125 0.0625 0
0.0625 0.0625 0
0.0625 0 0
0.09375 0 0
0.0625 0.03125 0
0.09375 0.03125 0
0.09375 0 0
0.125 0 0
0.09375 0.03125 0
0.125 0.03125 0
0.0625 0.03125 0
0.09375 0.03125 0
0.0625 0.0625 0
0.09375 0.0625 0
0.09375 0.03125 0
0.125 0.03125 0
0.09375 0.0625 0
0.125 0.0625 0
0 0.0625 0
0.03125 0.0625 0
0 0.09375 0
0.03125 0.09375 0
0.03125 0.0625 0
0.0625 0.0625 0
0.03125 0.09375 0
0.0625 0.09375 0
0 0.09375 0
0.03125 0.09375 0
0 0.125 0
0.03125 0.125 0
0.03125 0.09375 0
0.0625 0.09375 0
0.03125 0.125 0
0.0625 0.125 0
0.0625 0.0625 0
0.09375 0.0625 0
0.0625 0.09375 0
0.09375 0.09375 0
0.09375 0.0625 0
0.125 0.0625 0
0.09375 0.09375 0
0.125 0.09375 0
0.0625 0.09375 0
0.09375 0.09375 0
0.0625 0.125 0
0.09375 0.125 0
0.09375 0.09375 0
0.125 0.09375 0
0.09375 0.125 0
0.125 0.125 0
0.125 0 0
0.15625 0 0
0.125 0.03125 0
0.15625 0.03125 0
0.15625 0 0
0.1875 0 0
0.15625 0.03125 0
0.1875 0.03125 0
0.125 0.03125 0
0.15625 0.03125 0
0.125 0.0625 0
0.15625 0.0625 0
0.15625 0.03125 0
0.1875 0.03125 0
0.15625 0.0625 0
0.1875 0.0625 0
0.1875 0 0
0.21875 0 0
0.1875 0.03125 0
0.21875 0.03125 0
0.21875 0 0
0.25 0 0
0.21875 0.03125 0
0.25 0.03125 0
0.1875 0.03125 0
0.21875 0.03125 0
0.1875 0.0625 0
0.21875 0.0625 0
0.21875 0.03125 0
0.25 0.03125 0
0.21875 0.0625 0
0.25 0.0625 0
0.125 0.0625 0
0.15625 0.0625 0
0.125 0.09375 0
0.15625 0.09375 0
0.15625 0.0625 0
0.1875 0.0625 0
0.15625 0.09375 0
0.1875 0.09375 0
0.125 0.09375 0
0.15625 0.09375 0
0.125 0.125 0
0.15625 0.125 0
0.15625 0.09375 0
0.1875 0.09375 0
0.15625 0.125 0
0.1875 0.125 0
0.1875 0.0625 0
0.21875 0.0625 0
0.1875 0.09375 0
0.21875 0.09375 0
0.21875 0.0625 0
0.25 0.0625 0
0.21875 0.09375 0
0.25 0.09375 0
0.1875 0.09375 0
0.21875 0.09375 0
0.1875 0.125 0
0.21875 0.125 0
0.21875 0.09375 0
0.25 0.09375 0
0.21875 0.125 0
0.25 0.125 0
0 0.125 0
0.03125 0.125 0
0 0.15625 0
0.03125 0.15625 0
0.03125 0.125 0
0.0625 0.125 0
0.03125 0.15625 0
0.0625 0.15625 0
0 0.15625 0
0.03125 0.15625 0
0 0.1875 0
0.03125 0.1875 0
0.03125 0.15625 0
0.0625 0.15625 0
0.03125 0.1875 0
0.0625 0.1875 0
0.0625 0.125 0
0.09375 0.125 0
0.0625 0.15625 0
0.09375 0.15625 0
0.09375 0.125 0
0.125 0.125 0
0.09375 0.15625 0
0.125 0.15625 0
0.0625 0.15625 0
0.09375 0.15625 0
0.0625 0.1875 0
0.09375 0.1875 0
0.09375 0.15625 0
0.125 0.15625 0
0.09375 0.1875 0
0.125 0.1875 0
0 0.1875 0
0.03125 0.1875 0
0 0.21875 0
0.03125 0.21875 0
0.03125 0.1875 0
0.0625 0.1875 0
0.03125 0.21875 0
0.0625 0.21875 0
0 0.21875 0
0.03125 0.21875 0
0 0.25 0
0.03125 0.25 0
0.03125 0.21875 0
0.0625 0.21875 0
0.03125 0.25 0
0.0625 0.25 0
0.0625 0.1875 0
0.09375 0.1875 0
0.0625 0.21875 0
0.09375 0.21875 0
0.09375 0.1875 0
0.125 0.1875 0
0.09375 0.21875 0
0.125 0.21875 0
0.0625 0.21875 0
0.09375 0.21875 0
0.0625 0.25 0
0.09375 0.25 0
0.09375 0.21875 0
0.125 0.21875 0
0.09375 0.25 0
0.125 0.25 0
0.125 0.125 0
0.15625 0.125 0
0.125 0.15625 0
0.15625 0.15625 0
0.15625 0.125 0
0.1875 0.125 0
0.15625 0.15625 0
0.1875 0.15625 0
0.125 0.15625 0
0.15625 0.15625 0
0.125 0.1875 0
0.15625 0.1875 0
0.15625 0.15625 0
0.1875 0.15625 0
0.15625 0.1875 0
0.1875 0.1875 0
0.1875 0.125 0
0.21875 0.125 0
0.1875 0.15625 0
0.21875 0.15625 0
0.21875 0.125 0
0.25 0.125 0
0.21875 0.15625 0
0.25 0.15625 0
0.1875 0.15625 0
0.21875 0.15625 0
0.1875 0.1875 0
0.21875 0.1875 0
0.21875 0.15625 0
0.25 0.15625 0
0.21875 0.1875 0
0.25 0.1875 0
0.125 0.1875 0
0.15625 0.1875 0
0.125 0.21875 0
0.15625 0.21875 0
0.15625 0.1875 0
0.1875 0.1875 0
0.15625 0.21875 0
0.1875 0.21875 0
0.125 0.21875 0
0.15625 0.21875 0
0.125 0.25 0
0.15625 0.25 0
0.15625 0.21875 0
0.1875 0.21875 0
0.15625 0.25 0
0.1875 0.25 0
0.1875 0.1875 0
0.21875 0.1875 0
0.1875 0.21875 0
0.21875 0.21875 0
0.21875 0.1875 0
0.25 0.1875 0
0.21875 0.21875 0
0.25 0.21875 0
0.1875 0.21875 0
0.21875 0.21875 0
0.1875 0.25 0
0.21875 0.25 0
0.21875 0.21875 0
0.25 0.21875 0
0.21875 0.25 0
0.25 0.25 0
0.25 0 0
0.28125 0 0
0.25 0.03125 0
0.28125 0.03125 0
0.28125 0 0
0.3125 0 0
0.28125 0.03125 0
0.3125 0.03125 0
0.25 0.03125 0
0.28125 0.03125 0
0.25 0.0625 0
0.28125 0.0625 0
0.28125 0.03125 0
0.3125 0.03125 0
0.28125 0.0625 0
0.3125 0.0625 0
0.3125 0 0
0.34375 0 0
0.3125 0.03125 0
0.34375 0.03125 0
0.34375 0 0
0.375 0 0
0.34375 0.03125 0
0.375 0.03125 0
0.3125 0.03125 0
0.34375 0.03125 0
0.3125 0.0625 0
0.34375 0.0625 0
0.34375 0.03125 0
0.375 0.03125 0
0.34375 0.0625 0
0.375 0.0625 0
0.25 0.0625 0
0.28125 0.0625 0
0.25 0.09375 0
0.28125 0.09375 0
0.28125 0.0625 0
0.3125 0.0625 0
0.28125 0.09375 0
0.3125 0.09375 0
0.25 0.09375 0
0.28125 0.09375 0
0.25 0.125 0
0.28125 0.125 0
0.28125 0.09375 0
0.3125 0.09375 0
0.28125 0.125 0
0.3125 0.125 0
0.3125 0.0625 0
0.34375 0.0625 0
0.3125 0.09375 0
0.34375 0.09375 0
0.34375 0.0625 0
0.375 0.0625 0
0.34375 0.09375 0
0.375 0.09375 0
0.3125 0.09375 0
0.34375 0.09375 0
0.3125 0.125 0
0.34375 0.125 0
0.34375 0.09375 0
0.375 0.09375 0
0.34375 0.125 0
0.375 0.125 0
0.375 0 0
0.40625 0 0
0.375 0.03125 0
0.40625 0.03125 0
0.40625 0 0
0.4375 0 0
0.40625 0.03125 0
0.4375 0.03125 0
0.375 0.03125 0
0.40625 0.03125 0
0.375 0.0625 0
0.40625 0.0625 0
0.40625 0.03125 0
0.4375 0.03125 0
0.40625 0.0625 0
0.4375 0.0625 0
0.4375 0 0
0.46875 0 0
0.4375 0.03125 0
0.46875 0.03125 0
0.46875 0 0
0.5 0 0
0.46875 0.03125 0
0.5 0.03125 0
0.4375 0.03125 0
0.46875 0.03125 0
0.4375 0.0625 0
0.46875 0.0625 0
0.46875 0.03125 0
0.5 0.03125 0
0.46875 0.0625 0
0.5 0.0625 0
0.375 0.0625 0
0.40625 0.0625 0
0.375 0.09375 0
0.40625 0.09375 0
0.40625 0.0625 0
0.4375 0.0625 0
0.40625 0.09375 0
0.4375 0.09375 0
0.375 0.09375 0
0.40625 0.09375 0
0.375 0.125 0
0.40625 0.125 0
0.40625 0.09375 0
0.4375 0.09375 0
0.40625 0.125 0
0.4375 0.125 0
0.4375 0.0625 0
0.46875 0.0625 0
0.4375 0.09375 0
0.46875 0.09375 0
0.46875 0.0625 0
0.5 0.0625 0
0.46875 0.09375 0
0.5 0.09375 0
0.4375 0.09375 0
0.46875 0.09375 0
0.4375 0.125 0
0.46875 0.125 0
0.46875 0.09375 0
0.5 0.09375 0
0.46875 0.125 0
0.5 0.125 0
0.25 0.125 0
0.28125 0.125 0
0.25 0.15625 0
0.28125 0.15625 0
0.28125 0.125 0
0.3125 0.125 0
0.28125 0.15625 0
0.3125 0.15625 0
0.25 0.15625 0
0.28125 0.15625 0
0.25 0.1875 0
0.28125 0.1875 0
0.28125 0.15625 0
0.3125 0.15625 0
0.28125 0.1875 0
0.3125 0.1875 0
0.3125 0.125 0
0.34375 0.125 0
0.3125 0.15625 0
0.34375 0.15625 0
0.34375 0.125 0
0.375 0.125 0
0.34375 0.15625 0
0.375 0.15625 0
0.3125 0.15625 0
0.34375 0.15625 0
0.3125 0.1875 0
0.34375 0.1875 0
0.34375 0.15625 0
0.375 0.15625 0
0.34375 0.1875 0
0.375 0.1875 0
0.25 0.1875 0
0.28125 0.1875 0
0.25 0.21875 0
0.28125 0.21875 0
0.28125 0.1875 0
0.3125 0.1875 0
0.28125 0.21875 0
0.3125 0.21875 0
0.25 0.21875 0
0.28125 0.21875 0
0.25 0.25 0
0.28125 0.25 0
0.28125 0.21875 0
0.3125 0.21875 0
0.28125 0.25 0
0.3125 0.25 0
0.3125 0.1875 0
0.34375 0.1875 0
0.3125 0.21875 0
0.34375 0.21875 0
0.34375 0.1875 0
0.375 0.1875 0
0.34375 0.21875 0
0.375 0.21875 0
0.3125 0.21875 0
0.34375 0.21875 0
0.3125 0.25 0
0.34375 0.25 0
0.34375 0.21875 0
0.375 0.21875 0
0.34375 0.25 0
0.375 0.25 0
0.375 0.125 0
0.40625 0.125 0
0.375 0.15625 0
0.40625 0.15625 0
0.40625 0.125 0
0.4375 0.125 0
0.40625 0.15625 0
0.4375 0.15625 0
0.375 0.15625 0
0.40625 0.15625 0
0.375 0.1875 0
0.40625 0.1875 0
0.40625 0.15625 0
0.4375 0.15625 0
0.40625 0.1875 0
0.4375 0.1875 0
0.4375 0.125 0
0.46875 0.125 0
0.4375 0.15625 0
0.46875 0.15625 0
0.46875 0.125 0
0.5 0.125 0
0.46875 0.15625 0
0.5 0.15625 0
0.4375 0.15625 0
0.46875 0.15625 0
0.4375 0.1875 0
0.46875 0.1875 0
0.46875 0.15625 0
0.5 0.15625 0
0.46875 0.1875 0
0.5 0.1875 0
0.375 0.1875 0
0.40625 0.1875 0
0.375 0.21875 0
0.40625 0.21875 0
0.40625 0.1875 0
0.4375 0.1875 0
0.40625 0.21875 0
0.4375 0.21875 0
0.375 0.21875 0
0.40625 0.21875 0
0.375 0.25 0
0.40625 0.25 0
0.40625 0.21875 0
0.4375 0.21875 0
0.40625 0.25 0
0.4375 0.25 0
0.4375 0.1875 0
0.46875 0.1875 0
0.4375 0.21875 0
0.46875 0.21875 0
0.46875 0.1875 0
0.5 0.1875 0
0.46875 0.21875 0
0.5 0.21875 0
0.4375 0.21875 0
0.46875 0.21875 0
0.4375 0.25 0
0.46875 0.25 0
0.46875 0.21875 0
0.5 0.21875 0
0.46875 0.25 0
0.5 0.25 0
0 0.25 0
0.03125 0.25 0
0 0.28125 0
0.03125 0.28125 0
0.03125 0.25 0
0.0625 0.25 0
0.03125 0.28125 0
0.0625 0.28125 0
0 0.28125 0
0.03125 0.28125 0
0 0.3125 0
0.03125 0.3125 0
0.03125 0.28125 0
0.0625 0.28125 0
0.03125 0.3125 0
0.0625 0.3125 0
0.0625 0.25 0
0.09375 0.25 0
0.0625 0.28125 0
0.09375 0.28125 0
0.09375 0.25 0
0.125 0.25 0
0.09375 0.28125 0
0.125 0.28125 0
0.0625 0.28125 0
0.09375 0.28125 0
0.0625 0.3125 0
0.09375 0.3125 0
0.09375 0.28125 0
0.125 0.28125 0
0.09375 0.3125 0
0.125 0.3125 0
0 0.3125 0
0.03125 0.3125 0
0 0.34375 0
0.03125 0.34375 0
0.03125 0.3125 0
0.0625 0.3125 0
0.03125 0.34375 0
0.0625 0.34375 0
0 0.34375 0
0.03125 0.34375 0
0 0.375 0
0.03125 0.375 0
0.03125 0.34375 0
0.0625 0.34375 0
0.03125 0.375 0
0.0625 0.375 0
0.0625 0.3125 0
0.09375 0.3125 0
0.0625 0.34375 0
0.09375 0.34375 0
0.09375 0.3125 0
0.125 0.3125 0
0.09375 0.34375 0
0.125 0.34375 0
0.0625 0.34375 0
0.09375 0.34375 0
0.0625 0.375 0
0.09375 0.375 0
0.09375 0.34375 0
0.125 0.34375 0
0.09375 0.375 0
0.125 0.375 0
0.125 0.25 0
0.15625 0.25 0
0.125 0.28125 0
0.15625 0.28125 0
0.15625 0.25 0
0.1875 0.25 0
0.15625 0.28125 0
0.1875 0.28125 0
0.125 0.28125 0
0.15625 0.28125 0
0.125 0.3125 0
0.15625 0.3125 0
0.15625 0.28125 0
0.1875 0.28125 0
0.15625 0.3125 0
0.1875 0.3125 0
0.1875 0.25 0
0.21875 0.25 0
0.1875 0.28125 0
0.21875 0.28125 0
0.21875 0.25 0
0.25 0.25 0
0.21875 0.28125 0
0.25 0.28125 0
0.1875 0.28125 0
0.21875 0.28125 0
0.1875 0.3125 0
0.21875 0.3125 0
0.21875 0.28125 0
0.25 0.28125 0
0.21875 0.3125 0
0.25 0.3125 0
0.125 0.3125 0
0.15625 0.3125 0
0.125 0.34375 0
0.15625 0.34375 0
0.15625 0.3125 0
0.1875 0.3125 0
0.15625 0.34375 0
0.1875 0.34375 0
0.125 0.34375 0
[...]
POINT_DATA 4096
SCALARS p double 1
LOOKUP_TABLE default
-6.46919e-08 0.000115036 -0.000115479 2.9497e-08 0.000115036 0.000344916 2.9497e-08 0.000112016 -0.000115479 2.9497e-08 -0.000348065 -0.000111458 2.9497e-08 0.000112016 -0.000111458 2.83714e-06 0.000344916 0.000490852 0.000112016 0.000174217 0.000490852 0.000476138 0.000174217 0.000130492 0.000112016 0.000174217 2.83714e-06 5.2358e-05 0.000174217 0.000130492 5.2358e-05 -1.45387e-05 -0.000348065 -0.000111458 -0.000502479 -0.000173438 -0.000111458 2.83714e-06 -0.000173438 -3.92901e-05 -0.000502479 -0.000173438 -0.000501783 -0.000127948 -0.000173438 -3.92901e-05 -0.000127948 4.03036e-05 2.83714e-06 5.2358e-05 -3.92901e-05 1.40766e-05 5.2358e-05 -1.45387e-05 1.40766e-05 -5.66868e-05 -3.92901e-05 1.40766e-05 4.03036e-05 0.000106023 1.40766e-05 -5.66868e-05 0.000106023 3.82656e-05 0.000476138 0.000283034 0.000130492 -3.64478e-05 0.000283034 -8.25129e-05 -3.64478e-05 -0.000330304 0.000130492 -3.64478e-05 -1.45387e-05 -0.000206682 -3.64478e-05 -0.000330304 -0.000206682 -0.000529633 -8.25129e-05 -0.000608745 -0.000330304 -0.000747238 -0.000608745 -0.00128334 -0.000747238 -0.00128053 -0.000330304 -0.000747238 -0.000529633 -0.000981619 -0.000747238 -0.00128053 -0.000981619 -0.00155744 -1.45387e-05 -0.000206682 -5.66868e-05 -0.000249243 -0.000206682 -0.000529633 -0.000249243 -0.000566929 -5.66868e-05 -0.000249243 3.82656e-05 -0.000155988 -0.000249243 -0.000566929 -0.000155988 -0.000477049 -0.000529633 -0.000981619 -0.000566929 -0.0010081 -0.000981619 -0.00155744 -0.0010081 -0.00156855 -0.000566929 -0.0010081 -0.000477049 -0.000922309 -0.0010081 -0.00156855 -0.000922309 -0.00148745 -0.000501783 -0.000127948 -0.00032348 4.69311e-05 -0.000127948 4.03036e-05 4.69311e-05 0.000256311 -0.00032348 4.69311e-05 3.50872e-05 0.000362174 4.69311e-05 0.000256311 0.000362174 0.000622584 4.03036e-05 0.000106023 0.000256311 0.00033219 0.000106023 3.82656e-05 0.00033219 0.000270026 0.000256311 0.00033219 0.000622584 0.000704233 0.00033219 0.000270026 0.000704233 0.000647271 3.50872e-05 0.000362174 0.00057422 0.000823954 0.000362174 0.000622584 0.000823954 0.00114844 0.00057422 0.000823954 0.0012972 0.00143847 0.000823954 0.00114844 0.00143847 0.00184295 0.000622584 0.000704233 0.00114844 0.0012314 0.000704233 0.000647271 0.0012314 0.00117828 0.00114844 0.0012314 0.00184295 0.00192344 0.0012314 0.00117828 0.00192344 0.00187262 3.82656e-05 -0.000155988 0.000270026 7.49149e-05 -0.000155988 -0.000477049 7.49149e-05 -0.000250625 0.000270026 7.49149e-05 0.000647271 0.000449293 7.49149e-05 -0.000250625 0.000449293 0.000115512 -0.000477049 -0.000922309 -0.000250625 -0.000703114 -0.000922309 -0.00148745 -0.000703114 -0.0012778 -0.000250625 -0.000703114 0.000115512 -0.000350072 -0.000703114 -0.0012778 -0.000350072 -0.000942159 0.000647271 0.000449293 0.00117828 0.000974468 0.000449293 0.000115512 0.000974468 0.000628096 0.00117828 0.000974468 0.00187262 0.00165944 0.000974468 0.000628096 0.00165944 0.00129552 0.000115512 -0.000350072 0.000628096 0.000143374 -0.000350072 -0.000942159 0.000143374 -0.000473859 0.000628096 0.000143374 0.00129552 0.000785051 0.000143374 -0.000473859 0.000785051 0.000134405 -0.00128334 -0.00209444 -0.00128053 -0.00192214 -0.00209444 -0.00303018 -0.00192214 -0.00266314 -0.00128053 -0.00192214 -0.00155744 -0.00224966 -0.00192214 -0.00266314 -0.00224966 -0.00304927 -0.00303018 -0.00407805 -0.00266314 -0.00349371 -0.00407805 -0.0052245 -0.00349371 -0.00440307 -0.00266314 -0.00349371 -0.00304927 -0.00394599 -0.00349371 -0.00440307 -0.00394599 -0.00492827 -0.00155744 -0.00224966 -0.00156855 -0.00224185 -0.00224966 -0.00304927 -0.00224185 -0.00301979 -0.00156855 -0.00224185 -0.00148745 -0.00216626 -0.00224185 -0.00301979 -0.00216626 -0.00295082 -0.00304927 -0.00394599 -0.00301979 -0.00389273 -0.00394599 -0.00492827 -0.00389273 -0.00484963 -0.00301979 -0.00389273 -0.00295082 -0.00383165 -0.00389273 -0.00484963 -0.00383165 -0.00479785 -0.0052245 -0.0064548 -0.00440307 -0.00537944 -0.0064548 -0.00775298 -0.00537944 -0.00641003 -0.00440307 -0.00537944 -0.00492827 -0.0059834 -0.00537944 -0.00641003 -0.0059834 -0.00709752 -0.00775298 -0.00910184 -0.00641003 -0.00748107 -0.00910184 -0.0104832 -0.00748107 -0.00857797 -0.00641003 -0.00748107 -0.00709752 -0.00825572 -0.00748107 -0.00857797 -0.00825572 -0.00944215 -0.00492827 -0.0059834 -0.00484963 -0.00587824 -0.0059834 -0.00709752 -0.00587824 -0.0069651 -0.00484963 -0.00587824 -0.00479785 -0.00583721 -0.00587824 -0.0069651 -0.00583721 -0.00693628 -0.00709752 -0.00825572 -0.0069651 -0.0080957 -0.00825572 -0.00944215 -0.0080957 -0.00925456 -0.0069651 -0.0080957 -0.00693628 -0.00808046 -0.0080957 -0.00925456 -0.00808046 -0.00925416 -0.00148745 -0.00216626 -0.0012778 -0.00196836 -0.00216626 -0.00295082 -0.00196836 -0.00276692 -0.0012778 -0.00196836 -0.000942159 -0.00165416 -0.00196836 -0.00276692 -0.00165416 -0.00247803 -0.00295082 -0.00383165 -0.00276692 -0.00366403 -0.00383165 -0.00479785 -0.00366403 -0.00464881 -0.00276692 -0.00366403 -0.00247803 -0.0034042 -0.00366403 -0.00464881 -0.0034042 -0.00442165 -0.000942159 -0.00165416 -0.000473859 -0.00121669 -0.00165416 -0.00247803 -0.00121669 -0.00207677 -0.000473859 -0.00121669 0.000134405 -0.000649102 -0.00121669 -0.00207677 -0.000649102 -0.00155675 -0.00247803 -0.0034042 -0.00207677 -0.00304429 -0.0034042 -0.00442165 -0.00304429 -0.00410793 -0.00207677 -0.00304429 -0.00155675 -0.00257836 -0.00304429 -0.00410793 -0.00257836 -0.00370224 -0.00479785 -0.00583721 -0.00464881 -0.00570903 -0.00583721 -0.00693628 -0.00570903 -0.00683111 -0.00464881 -0.00570903 -0.00442165 -0.00551794 -0.00570903 -0.00683111 -0.00551794 -0.00667928 -0.00693628 -0.00808046 -0.00683111 -0.00800035 -0.00808046 -0.00925416 -0.00800035 -0.00920089 -0.00683111 -0.00800035 -0.00667928 -0.00789066 -0.00800035 -0.00920089 -0.00789066 -0.00913583 -0.00442165 -0.00551794 -0.00410793 -0.00525498 -0.00551794 -0.00667928 -0.00525498 -0.00647127 -0.00410793 -0.00525498 -0.00370224 -0.00491527 -0.00525498 -0.00647127 -0.00491527 -0.0062028 -0.00667928 -0.00789066 -0.00647127 -0.00774135 -0.00789066 -0.00913583 -0.00774135 -0.00904843 -0.00647127 -0.00774135 -0.0062028 -0.00754883 -0.00774135 -0.00904843 -0.00754883 -0.00893592 0.0012972 0.00143847 0.00221162 0.00221381 0.00143847 0.00184295 0.00221381 0.00271648 0.00221162 0.00221381 0.00332922 0.0031607 0.00221381 0.00271648 0.0031607 0.0037818 0.00184295 0.00192344 0.00271648 0.00279134 0.00192344 0.00187262 0.00279134 0.00274148 0.00271648 0.00279134 0.0037818 0.00384828 0.00279134 0.00274148 0.00384828 0.00379822 0.00332922 0.0031607 0.00466562 0.00429271 0.0031607 0.0037818 0.00429271 0.00505462 0.00466562 0.00429271 0.00624013 0.00562657 0.00429271 0.00505462 0.00562657 0.00655405 0.0037818 0.00384828 0.00505462 0.00511014 0.00384828 0.00379822 0.00511014 0.00505888 0.00505462 0.00511014 0.00655405 0.00659607 0.00511014 0.00505888 0.00659607 0.00654264 0.00187262 0.00165944 0.00274148 0.00251519 0.00165944 0.00129552 0.00251519 0.00212839 0.00274148 0.00251519 0.00379822 0.00355492 0.00251519 0.00212839 0.00355492 0.00313957 0.00129552 0.000785051 0.00212839 0.00158514 0.000785051 0.000134405 0.00158514 0.000892413 0.00212839 0.00158514 0.00313957 0.00255607 0.00158514 0.000892413 0.00255607 0.00181216 0.00379822 0.00355492 0.00505888 0.00479448 0.00355492 0.00313957 0.00479448 0.00434456 0.00505888 0.00479448 0.00654264 0.00625275 0.00479448 0.00434456 0.00625275 0.00576172 0.00313957 0.00255607 0.00434456 0.00371287 0.00255607 0.00181216 0.00371287 0.00290806 0.00434456 0.00371287 0.00576172 0.00507326 0.00371287 0.00290806 0.00507326 0.00419718 0.00624013 0.00562657 0.00807599 0.00718245 0.00562657 0.00655405 0.00718245 0.00830304 0.00807599 0.00718245 0.0102008 0.00898445 0.00718245 0.00830304 0.00898445 0.0103291 0.00655405 0.00659607 0.00830304 0.00832898 0.00659607 0.00654264 0.00832898 0.00827235 0.00830304 0.00832898 0.0103291 0.0103363 0.00832898 0.00827235 0.0103363 0.0102752 0.0102008 0.00898445 0.0126474 0.0110614 0.00898445 0.0103291 0.0110614 0.0126653 0.0126474 0.0110614 0.0154544 0.0134479 0.0110614 0.0126653 0.0134479 0.0153514 0.0103291 0.0103363 0.0126653 0.0126506 0.0103363 0.0102752 0.0126506 0.0125834 0.0126653 0.0126506 0.0153514 0.0153116 0.0126506 0.0125834 0.0153116 0.0152357 0.00654264 0.00625275 0.00827235 0.00795209 0.00625275 0.00576172 0.00795209 0.00741268 0.00827235 0.00795209 0.0102752 0.0099189 0.00795209 0.00741268 0.0099189 0.00932283 0.00576172 0.00507326 0.00741268 0.006658 0.00507326 0.00419718 0.006658 0.00569937 0.00741268 0.006658 0.00932283 0.00849133 0.006658 0.00569937 0.00849133 0.0074376 0.0102752 0.0099189 0.0125834 0.0121843 0.0099189 0.00932283 0.0121843 0.0115218 0.0125834 0.0121843 0.0152357 0.0147853 0.0121843 0.0115218 0.0147853 0.0140444 0.00932283 0.00849133 0.0115218 0.0106012 0.00849133 0.0074376 0.0106012 0.00943821 0.0115218 0.0106012 0.0140444 0.01302 0.0106012 0.00943821 0.01302 0.0117312 0.000134405 -0.000649102 0.000892413 5.79941e-05 -0.000649102 -0.00155675 5.79941e-05 -0.00090896 0.000892413 5.79941e-05 0.00181216 0.000916101 5.79941e-05 -0.00090896 0.000916101 -0.000122378 -0.00155675 -0.00257836 -0.00090896 -0.00199781 -0.00257836 -0.00370224 -0.00199781 -0.00319639 -0.00090896 -0.00199781 -0.000122378 -0.0012921 -0.00199781 -0.00319639 -0.0012921 -0.00258036 0.00181216 0.000916101 0.00290806 0.00193907 0.000916101 -0.000122378 0.00193907 0.000816257 0.00290806 0.00193907 0.00419718 0.00314323 0.00193907 0.000816257 0.00314323 0.00192258 -0.000122378 -0.0012921 0.000816257 -0.000448556 -0.0012921 -0.00258036 -0.000448556 -0.00184206 0.000816257 -0.000448556 0.00192258 0.000547775 -0.000448556 -0.00184206 0.000547775 -0.000967174 -0.00370224 -0.00491527 -0.00319639 -0.00449108 -0.00491527 -0.0062028 -0.00449108 -0.00586668 -0.00319639 -0.00449108 -0.00258036 -0.00397295 -0.00449108 -0.00586668 -0.00397295 -0.00545405 -0.0062028 -0.00754883 -0.00586668 -0.00730652 -0.00754883 -0.00893592 -0.00730652 -0.00879245 -0.00586668 -0.00730652 -0.00545405 -0.0070063 -0.00730652 -0.00879245 -0.0070063 -0.00861074 -0.00258036 -0.00397295 -0.00184206 -0.00334939 -0.00397295 -0.00545405 -0.00334939 -0.0049541 -0.00184206 -0.00334939 -0.000967174 -0.00260674 -0.00334939 -0.0049541 -0.00260674 -0.00435384 -0.00545405 -0.0070063 -0.0049541 -0.00663811 -0.0070063 -0.00861074 -0.00663811 -0.00838165 -0.0049541 -0.00663811 -0.00435384 -0.00618972 -0.00663811 -0.00838165 -0.00618972 -0.00809386 0.00419718 0.00314323 0.00569937 0.00454754 0.00314323 0.00192258 0.00454754 0.00321467 0.00569937 0.00454754 0.0074376 0.00617378 0.00454754 0.00321467 0.00617378 0.00471321 0.00192258 0.000547775 0.00321467 0.00171418 0.000547775 -0.000967174 0.00171418 6.08522e-05 0.00321467 0.00171418 0.00471321 0.00307038 0.00171418 6.08522e-05 0.00307038 0.00126094 0.0074376 0.00617378 0.00943821 0.00804668 0.00617378 0.00471321 0.00804668 0.00644154 0.00943821 0.00804668 0.0117312 0.0101941 0.00804668 0.00644154 0.0101941 0.00842563 0.00471321 0.00307038 0.00644154 0.00463854 0.00307038 0.00126094 0.00463854 0.00265433 0.00644154 0.00463854 0.00842563 0.00644313 0.00463854 0.00265433 0.00644313 0.00426442 -0.000967174 -0.00260674 6.08522e-05 -0.00172911 -0.00260674 -0.00435384 -0.00172911 -0.00363801 6.08522e-05 -0.00172911 0.00126094 -0.000698232 -0.00172911 -0.00363801 -0.000698232 -0.00278892 -0.00435384 -0.00618972 -0.00363801 -0.00564656 -0.00618972 -0.00809386 -0.00564656 -0.00773359 -0.00363801 -0.00564656 -0.00278892 -0.00499143 -0.00564656 -0.00773359 -0.00499143 -0.00728425 0.00126094 -0.000698232 0.00265433 0.000506485 -0.000698232 -0.00278892 0.000506485 -0.00178638 0.00265433 0.000506485 0.00426442 0.0019078 0.000506485 -0.00178638 0.0019078 -0.000607855 -0.00278892 -0.00499143 -0.00178638 -0.00420441 -0.00499143 -0.00728425 -0.00420441 -0.00672615 -0.00178638 -0.00420441 -0.000607855 -0.00326289 -0.00420441 -0.00672615 -0.00326289 -0.00603637 -0.0104832 -0.0118778 -0.00857797 -0.00968539 -0.0118778 -0.0132658 -0.00968539 -0.0107874 -0.00857797 -0.00968539 -0.00944215 -0.0106401 -0.00968539 -0.0107874 -0.0106401 -0.0118324 -0.0132658 -0.0146269 -0.0107874 -0.0118677 -0.0146269 -0.0159404 -0.0118677 -0.0129098 -0.0107874 -0.0118677 -0.0118324 -0.0130011 -0.0118677 -0.0129098 -0.0130011 -0.0141285 -0.00944215 -0.0106401 -0.00925456 -0.0104254 -0.0106401 -0.0118324 -0.0104254 -0.0115912 -0.00925456 -0.0104254 -0.00925416 -0.0104409 -0.0104254 -0.0115912 -0.0104409 -0.0116234 -0.0118324 -0.0130011 -0.0115912 -0.0127345 -0.0130011 -0.0141285 -0.0127345 -0.0138378 -0.0115912 -0.0127345 -0.0116234 -0.012784 -0.0127345 -0.0138378 -0.012784 -0.0139048 -0.0159404 -0.0171857 -0.0129098 -0.0138973 -0.0171857 -0.0183426 -0.0138973 -0.0148139 -0.0129098 -0.0138973 -0.0141285 -0.0151965 -0.0138973 -0.0148139 -0.0151965 -0.0161878 -0.0183426 -0.0193913 -0.0148139 -0.0156441 -0.0193913 -0.0203131 -0.0156441 -0.016373 -0.0148139 -0.0156441 -0.0161878 -0.0170854 -0.0156441 -0.016373 -0.0170854 -0.0178734 -0.0141285 -0.0151965 -0.0138378 -0.0148833 -0.0151965 -0.0161878 -0.0148833 -0.015854 -0.0138378 -0.0148833 -0.0139048 -0.0149676 -0.0148833 -0.015854 -0.0149676 -0.015955 -0.0161878 -0.0170854 -0.015854 -0.0167331 -0.0170854 -0.0178734 -0.0167331 -0.0175054 -0.015854 -0.0167331 -0.015955 -0.0168498 -0.0167331 -0.0175054 -0.0168498 -0.0176365 -0.00925416 -0.0104409 -0.00920089 -0.010416 -0.0104409 -0.0116234 -0.010416 -0.011628 -0.00920089 -0.010416 -0.00913583 -0.0103975 -0.010416 -0.011628 -0.0103975 -0.0116576 -0.0116234 -0.012784 -0.011628 -0.0128188 -0.012784 -0.0139048 -0.0128188 -0.0139698 -0.011628 -0.0128188 -0.0116576 -0.0128972 -0.0128188 -0.0139698 -0.0128972 -0.0140969 -0.00913583 -0.0103975 -0.00904843 -0.0103746 -0.0103975 -0.0116576 -0.0103746 -0.011701 -0.00904843 -0.0103746 -0.00893592 -0.0103454 -0.0103746 -0.011701 -0.0103454 -0.0117573 -0.0116576 -0.0128972 -0.011701 -0.0130077 -0.0128972 -0.0140969 -0.0130077 -0.0142744 -0.011701 -0.0130077 -0.0117573 -0.0131508 -0.0130077 -0.0142744 -0.0131508 -0.014504 -0.0139048 -0.0149676 -0.0139698 -0.0150625 -0.0149676 -0.015955 -0.0150625 -0.0160785 -0.0139698 -0.0150625 -0.0140969 -0.0152372 -0.0150625 -0.0160785 -0.0152372 -0.0162988 -0.015955 -0.0168498 -0.0160785 -0.0170001 -0.0168498 -0.0176365 -0.0170001 -0.017811 -0.0160785 -0.0170001 -0.0162988 -0.0172629 -0.0170001 -0.017811 -0.0172629 -0.018112 -0.0140969 -0.0152372 -0.0142744 -0.0154802 -0.0152372 -0.0162988 -0.0154802 -0.0166045 -0.0142744 -0.0154802 -0.014504 -0.0157947 -0.0154802 -0.0166045 -0.0157947 -0.0170002 -0.0162988 -0.0172629 -0.0166045 -0.017627 -0.0172629 -0.018112 -0.017627 -0.0185284 -0.0166045 -0.017627 -0.0170002 -0.0180985 -0.017627 -0.0185284 -0.0180985 -0.0190682 -0.0203131 -0.0210898 -0.016373 -0.0169867 -0.0210898 -0.0217033 -0.0169867 -0.0174735 -0.016373 -0.0169867 -0.0178734 -0.0185376 -0.0169867 -0.0174735 -0.0185376 -0.019066 -0.0217033 -0.0221392 -0.0174735 -0.0178197 -0.0221392 -0.0223726 -0.0178197 -0.018039 -0.0174735 -0.0178197 -0.019066 -0.0194471 -0.0178197 -0.018039 -0.0194471 -0.0196923 -0.0178734 -0.0185376 -0.0175054 -0.0181569 -0.0185376 -0.019066 -0.0181569 -0.0186767 -0.0175054 -0.0181569 -0.0176365 -0.0183007 -0.0181569 -0.0186767 -0.0183007 -0.0188313 -0.019066 -0.0194471 -0.0186767 -0.0190537 -0.0194471 -0.0196923 -0.0190537 -0.0193003 -0.0186767 -0.0190537 -0.0188313 -0.0192166 -0.0190537 -0.0193003 -0.0192166 -0.0194677 -0.0223726 -0.0224501 -0.018039 -0.0180354 -0.0224501 -0.0223134 -0.0180354 -0.0183492 -0.018039 -0.0180354 -0.0196923 -0.0197211 -0.0180354 -0.0183492 -0.0197211 -0.020024 -0.0223134 -0.021015 -0.0183492 -0.016429 -0.021015 -0.0229176 -0.016429 -0.0207733 -0.0183492 -0.016429 -0.020024 -0.0181219 -0.016429 -0.0207733 -0.0181219 -0.0215974 -0.0196923 -0.0197211 -0.0193003 -0.0193292 -0.0197211 -0.020024 -0.0193292 -0.0196442 -0.0193003 -0.0193292 -0.0194677 -0.0194958 -0.0193292 -0.0196442 -0.0194958 -0.0197946 -0.020024 -0.0181219 -0.0196442 -0.0176948 -0.0181219 -0.0215974 -0.0176948 -0.0214424 -0.0196442 -0.0176948 -0.0197946 -0.0178157 -0.0176948 -0.0214424 -0.0178157 -0.021413 -0.0176365 -0.0183007 -0.017811 -0.0184962 -0.0183007 -0.0188313 -0.0184962 -0.0190436 -0.017811 -0.0184962 -0.018112 -0.0188298 -0.0184962 -0.0190436 -0.0188298 -0.0194033 -0.0188313 -0.0192166 -0.0190436 -0.0194407 -0.0192166 -0.0194677 -0.0194407 -0.0196973 -0.0190436 -0.0194407 -0.0194033 -0.0198185 -0.0194407 -0.0196973 -0.0198185 -0.0200843 -0.018112 -0.0188298 -0.0185284 -0.0192912 -0.0188298 -0.0194033 -0.0192912 -0.0199006 -0.0185284 -0.0192912 -0.0190682 -0.0198897 -0.0192912 -0.0199006 -0.0198897 -0.0205462 -0.0194033 -0.0198185 -0.0199006 -0.0203411 -0.0198185 -0.0200843 -0.0203411 -0.0206211 -0.0199006 -0.0203411 -0.0205462 -0.0210206 -0.0203411 -0.0206211 -0.0210206 -0.0213207 -0.0194677 -0.0194958 -0.0196973 -0.0197213 -0.0194958 -0.0197946 -0.0197213 -0.0200101 -0.0196973 -0.0197213 -0.0200843 -0.0201058 -0.0197213 -0.0200101 -0.0201058 -0.0203888 -0.0197946 -0.0178157 -0.0200101 -0.0179845 -0.0178157 -0.021413 -0.0179845 -0.0216067 -0.0200101 -0.0179845 -0.0203888 -0.01831 -0.0179845 -0.0216067 -0.01831 -0.0219712 -0.0200843 -0.0201058 -0.0206211 -0.0206426 -0.0201058 -0.0203888 -0.0206426 -0.0209246 -0.0206211 -0.0206426 -0.0213207 -0.0213449 -0.0206426 -0.0209246 -0.0213449 -0.02163 -0.0203888 -0.01831 -0.0209246 -0.0187787 -0.01831 -0.0219712 -0.0187787 -0.0225164 -0.0209246 -0.0187787 -0.02163 -0.0194007 -0.0187787 -0.0225164 -0.0194007 -0.0232435 -0.00893592 -0.0103454 -0.00879245 -0.0103048 -0.0103454 -0.0117573 -0.0103048 -0.0118227 -0.00879245 -0.0103048 -0.00861074 -0.0102468 -0.0103048 -0.0118227 -0.0102468 -0.0118921 -0.0117573 -0.0131508 -0.0118227 -0.0133237 -0.0131508 -0.014504 -0.0133237 -0.0147845 -0.0118227 -0.0133237 -0.0118921 -0.0135231 -0.0133237 -0.0147845 -0.0135231 -0.0151143 -0.00861074 -0.0102468 -0.00838165 -0.0101631 -0.0102468 -0.0118921 -0.0101631 -0.011959 -0.00838165 -0.0101631 -0.00809386 -0.0100437 -0.0101631 -0.011959 -0.0100437 -0.0120146 -0.0118921 -0.0135231 -0.011959 -0.0137439 -0.0135231 -0.0151143 -0.0137439 -0.0154905 -0.011959 -0.0137439 -0.0120146 -0.0139794 -0.0137439 -0.0154905 -0.0139794 -0.0159086 -0.014504 -0.0157947 -0.0147845 -0.0161809 -0.0157947 -0.0170002 -0.0161809 -0.0174881 -0.0147845 -0.0161809 -0.0151143 -0.0166393 -0.0161809 -0.0174881 -0.0166393 -0.0180709 -0.0170002 -0.0180985 -0.0174881 -0.0186815 -0.0180985 -0.0190682 -0.0186815 -0.0197373 -0.0174881 -0.0186815 -0.0180709 -0.0193813 -0.0186815 -0.0197373 -0.0193813 -0.0205434 -0.0151143 -0.0166393 -0.0154905 -0.0171697 -0.0166393 -0.0180709 -0.0171697 -0.0187511 -0.0154905 -0.0171697 -0.0159086 -0.0177703 -0.0171697 -0.0187511 -0.0177703 -0.0195304 -0.0180709 -0.0193813 -0.0187511 -0.0202033 -0.0193813 -0.0205434 -0.0202033 -0.0214953 -0.0187511 -0.0202033 -0.0195304 -0.0211531 -0.0202033 -0.0214953 -0.0211531 -0.0226024 -0.00809386 -0.0100437 -0.00773359 -0.00987582 -0.0100437 -0.0120146 -0.00987582 -0.0120475 -0.00773359 -0.00987582 -0.00728425 -0.00964367 -0.00987582 -0.0120475 -0.00964367 -0.0120432 -0.0120146 -0.0139794 -0.0120475 -0.01422 -0.0139794 -0.0159086 -0.01422 -0.0163617 -0.0120475 -0.01422 -0.0120432 -0.0144531 -0.01422 -0.0163617 -0.0144531 -0.0168395 -0.00728425 -0.00964367 -0.00672615 -0.00932792 -0.00964367 -0.0120432 -0.00932792 -0.0119831 -0.00672615 -0.00932792 -0.00603637 -0.00890537 -0.00932792 -0.0119831 -0.00890537 -0.011844 -0.0120432 -0.0144531 -0.0119831 -0.0146613 -0.0144531 -0.0168395 -0.0146613 -0.0173272 -0.0119831 -0.0146613 -0.011844 -0.0148222 -0.0146613 -0.0173272 -0.0148222 -0.0178039 -0.0159086 -0.0177703 -0.0163617 -0.0184374 -0.0177703 -0.0195304 -0.0184374 -0.020409 -0.0163617 -0.0184374 -0.0168395 -0.0191643 -0.0184374 -0.020409 -0.0191643 -0.0213848 -0.0195304 -0.0211531 -0.020409 -0.0222356 -0.0211531 -0.0226024 -0.0222356 -0.0238746 -0.020409 -0.0222356 -0.0213848 -0.023454 -0.0222356 -0.0238746 -0.023454 -0.02532