# vtk DataFile Version 3.0
#This file was generated by the deal.II library on 2026/1/5 at 14:19:35
ASCII
DATASET UNSTRUCTURED_GRID

POINTS 4096 double
0 0 0
0.03125 0 0
0 0.03125 0
0.03125 0.03125 0
0.03125 0 0
0.0625 0 0
0.03125 0.03125 0
0.0625 0.03125 0
0 0.03125 0
0.03125 0.03125 0
0 0.0625 0
0.03125 0.0625 0
0.03125 0.03125 0
0.0625 0.03125 0
0.03125 0.0625 0
0.0625 0.0625 0
0.0625 0 0
0.09375 0 0
0.0625 0.03125 0
0.09375 0.03125 0
0.09375 0 0
0.125 0 0
0.09375 0.03125 0
0.125 0.03125 0
0.0625 0.03125 0
0.09375 0.03125 0
0.0625 0.0625 0
0.09375 0.0625 0
0.09375 0.03125 0
0.125 0.03125 0
0.09375 0.0625 0
0.125 0.0625 0
0 0.0625 0
0.03125 0.0625 0
0 0.09375 0
0.03125 0.09375 0
0.03125 0.0625 0
0.0625 0.0625 0
0.03125 0.09375 0
0.0625 0.09375 0
0 0.09375 0
0.03125 0.09375 0
0 0.125 0
0.03125 0.125 0
0.03125 0.09375 0
0.0625 0.09375 0
0.03125 0.125 0
0.0625 0.125 0
0.0625 0.0625 0
0.09375 0.0625 0
0.0625 0.09375 0
0.09375 0.09375 0
0.09375 0.0625 0
0.125 0.0625 0
0.09375 0.09375 0
0.125 0.09375 0
0.0625 0.09375 0
0.09375 0.09375 0
0.0625 0.125 0
0.09375 0.125 0
0.09375 0.09375 0
0.125 0.09375 0
0.09375 0.125 0
0.125 0.125 0
0.125 0 0
0.15625 0 0
0.125 0.03125 0
0.15625 0.03125 0
0.15625 0 0
0.1875 0 0
0.15625 0.03125 0
0.1875 0.03125 0
0.125 0.03125 0
0.15625 0.03125 0
0.125 0.0625 0
0.15625 0.0625 0
0.15625 0.03125 0
0.1875 0.03125 0
0.15625 0.0625 0
0.1875 0.0625 0
0.1875 0 0
0.21875 0 0
0.1875 0.03125 0
0.21875 0.03125 0
0.21875 0 0
0.25 0 0
0.21875 0.03125 0
0.25 0.03125 0
0.1875 0.03125 0
0.21875 0.03125 0
0.1875 0.0625 0
0.21875 0.0625 0
0.21875 0.03125 0
0.25 0.03125 0
0.21875 0.0625 0
0.25 0.0625 0
0.125 0.0625 0
0.15625 0.0625 0
0.125 0.09375 0
0.15625 0.09375 0
0.15625 0.0625 0
0.1875 0.0625 0
0.15625 0.09375 0
0.1875 0.09375 0
0.125 0.09375 0
0.15625 0.09375 0
0.125 0.125 0
0.15625 0.125 0
0.15625 0.09375 0
0.1875 0.09375 0
0.15625 0.125 0
0.1875 0.125 0
0.1875 0.0625 0
0.21875 0.0625 0
0.1875 0.09375 0
0.21875 0.09375 0
0.21875 0.0625 0
0.25 0.0625 0
0.21875 0.09375 0
0.25 0.09375 0
0.1875 0.09375 0
0.21875 0.09375 0
0.1875 0.125 0
0.21875 0.125 0
0.21875 0.09375 0
0.25 0.09375 0
0.21875 0.125 0
0.25 0.125 0
0 0.125 0
0.03125 0.125 0
0 0.15625 0
0.03125 0.15625 0
0.03125 0.125 0
0.0625 0.125 0
0.03125 0.15625 0
0.0625 0.15625 0
0 0.15625 0
0.03125 0.15625 0
0 0.1875 0
0.03125 0.1875 0
0.03125 0.15625 0
0.0625 0.15625 0
0.03125 0.1875 0
0.0625 0.1875 0
0.0625 0.125 0
0.09375 0.125 0
0.0625 0.15625 0
0.09375 0.15625 0
0.09375 0.125 0
0.125 0.125 0
0.09375 0.15625 0
0.125 0.15625 0
0.0625 0.15625 0
0.09375 0.15625 0
0.0625 0.1875 0
0.09375 0.1875 0
0.09375 0.15625 0
0.125 0.15625 0
0.09375 0.1875 0
0.125 0.1875 0
0 0.1875 0
0.03125 0.1875 0
0 0.21875 0
0.03125 0.21875 0
0.03125 0.1875 0
0.0625 0.1875 0
0.03125 0.21875 0
0.0625 0.21875 0
0 0.21875 0
0.03125 0.21875 0
0 0.25 0
0.03125 0.25 0
0.03125 0.21875 0
0.0625 0.21875 0
0.03125 0.25 0
0.0625 0.25 0
0.0625 0.1875 0
0.09375 0.1875 0
0.0625 0.21875 0
0.09375 0.21875 0
0.09375 0.1875 0
0.125 0.1875 0
0.09375 0.21875 0
0.125 0.21875 0
0.0625 0.21875 0
0.09375 0.21875 0
0.0625 0.25 0
0.09375 0.25 0
0.09375 0.21875 0
0.125 0.21875 0
0.09375 0.25 0
0.125 0.25 0
0.125 0.125 0
0.15625 0.125 0
0.125 0.15625 0
0.15625 0.15625 0
0.15625 0.125 0
0.1875 0.125 0
0.15625 0.15625 0
0.1875 0.15625 0
0.125 0.15625 0
0.15625 0.15625 0
0.125 0.1875 0
0.15625 0.1875 0
0.15625 0.15625 0
0.1875 0.15625 0
0.15625 0.1875 0
0.1875 0.1875 0
0.1875 0.125 0
0.21875 0.125 0
0.1875 0.15625 0
0.21875 0.15625 0
0.21875 0.125 0
0.25 0.125 0
0.21875 0.15625 0
0.25 0.15625 0
0.1875 0.15625 0
0.21875 0.15625 0
0.1875 0.1875 0
0.21875 0.1875 0
0.21875 0.15625 0
0.25 0.15625 0
0.21875 0.1875 0
0.25 0.1875 0
0.125 0.1875 0
0.15625 0.1875 0
0.125 0.21875 0
0.15625 0.21875 0
0.15625 0.1875 0
0.1875 0.1875 0
0.15625 0.21875 0
0.1875 0.21875 0
0.125 0.21875 0
0.15625 0.21875 0
0.125 0.25 0
0.15625 0.25 0
0.15625 0.21875 0
0.1875 0.21875 0
0.15625 0.25 0
0.1875 0.25 0
0.1875 0.1875 0
0.21875 0.1875 0
0.1875 0.21875 0
0.21875 0.21875 0
0.21875 0.1875 0
0.25 0.1875 0
0.21875 0.21875 0
0.25 0.21875 0
0.1875 0.21875 0
0.21875 0.21875 0
0.1875 0.25 0
0.21875 0.25 0
0.21875 0.21875 0
0.25 0.21875 0
0.21875 0.25 0
0.25 0.25 0
0.25 0 0
0.28125 0 0
0.25 0.03125 0
0.28125 0.03125 0
0.28125 0 0
0.3125 0 0
0.28125 0.03125 0
0.3125 0.03125 0
0.25 0.03125 0
0.28125 0.03125 0
0.25 0.0625 0
0.28125 0.0625 0
0.28125 0.03125 0
0.3125 0.03125 0
0.28125 0.0625 0
0.3125 0.0625 0
0.3125 0 0
0.34375 0 0
0.3125 0.03125 0
0.34375 0.03125 0
0.34375 0 0
0.375 0 0
0.34375 0.03125 0
0.375 0.03125 0
0.3125 0.03125 0
0.34375 0.03125 0
0.3125 0.0625 0
0.34375 0.0625 0
0.34375 0.03125 0
0.375 0.03125 0
0.34375 0.0625 0
0.375 0.0625 0
0.25 0.0625 0
0.28125 0.0625 0
0.25 0.09375 0
0.28125 0.09375 0
0.28125 0.0625 0
0.3125 0.0625 0
0.28125 0.09375 0
0.3125 0.09375 0
0.25 0.09375 0
0.28125 0.09375 0
0.25 0.125 0
0.28125 0.125 0
0.28125 0.09375 0
0.3125 0.09375 0
0.28125 0.125 0
0.3125 0.125 0
0.3125 0.0625 0
0.34375 0.0625 0
0.3125 0.09375 0
0.34375 0.09375 0
0.34375 0.0625 0
0.375 0.0625 0
0.34375 0.09375 0
0.375 0.09375 0
0.3125 0.09375 0
0.34375 0.09375 0
0.3125 0.125 0
0.34375 0.125 0
0.34375 0.09375 0
0.375 0.09375 0
0.34375 0.125 0
0.375 0.125 0
0.375 0 0
0.40625 0 0
0.375 0.03125 0
0.40625 0.03125 0
0.40625 0 0
0.4375 0 0
0.40625 0.03125 0
0.4375 0.03125 0
0.375 0.03125 0
0.40625 0.03125 0
0.375 0.0625 0
0.40625 0.0625 0
0.40625 0.03125 0
0.4375 0.03125 0
0.40625 0.0625 0
0.4375 0.0625 0
0.4375 0 0
0.46875 0 0
0.4375 0.03125 0
0.46875 0.03125 0
0.46875 0 0
0.5 0 0
0.46875 0.03125 0
0.5 0.03125 0
0.4375 0.03125 0
0.46875 0.03125 0
0.4375 0.0625 0
0.46875 0.0625 0
0.46875 0.03125 0
0.5 0.03125 0
0.46875 0.0625 0
0.5 0.0625 0
0.375 0.0625 0
0.40625 0.0625 0
0.375 0.09375 0
0.40625 0.09375 0
0.40625 0.0625 0
0.4375 0.0625 0
0.40625 0.09375 0
0.4375 0.09375 0
0.375 0.09375 0
0.40625 0.09375 0
0.375 0.125 0
0.40625 0.125 0
0.40625 0.09375 0
0.4375 0.09375 0
0.40625 0.125 0
0.4375 0.125 0
0.4375 0.0625 0
0.46875 0.0625 0
0.4375 0.09375 0
0.46875 0.09375 0
0.46875 0.0625 0
0.5 0.0625 0
0.46875 0.09375 0
0.5 0.09375 0
0.4375 0.09375 0
0.46875 0.09375 0
0.4375 0.125 0
0.46875 0.125 0
0.46875 0.09375 0
0.5 0.09375 0
0.46875 0.125 0
0.5 0.125 0
0.25 0.125 0
0.28125 0.125 0
0.25 0.15625 0
0.28125 0.15625 0
0.28125 0.125 0
0.3125 0.125 0
0.28125 0.15625 0
0.3125 0.15625 0
0.25 0.15625 0
0.28125 0.15625 0
0.25 0.1875 0
0.28125 0.1875 0
0.28125 0.15625 0
0.3125 0.15625 0
0.28125 0.1875 0
0.3125 0.1875 0
0.3125 0.125 0
0.34375 0.125 0
0.3125 0.15625 0
0.34375 0.15625 0
0.34375 0.125 0
0.375 0.125 0
0.34375 0.15625 0
0.375 0.15625 0
0.3125 0.15625 0
0.34375 0.15625 0
0.3125 0.1875 0
0.34375 0.1875 0
0.34375 0.15625 0
0.375 0.15625 0
0.34375 0.1875 0
0.375 0.1875 0
0.25 0.1875 0
0.28125 0.1875 0
0.25 0.21875 0
0.28125 0.21875 0
0.28125 0.1875 0
0.3125 0.1875 0
0.28125 0.21875 0
0.3125 0.21875 0
0.25 0.21875 0
0.28125 0.21875 0
0.25 0.25 0
0.28125 0.25 0
0.28125 0.21875 0
0.3125 0.21875 0
0.28125 0.25 0
0.3125 0.25 0
0.3125 0.1875 0
0.34375 0.1875 0
0.3125 0.21875 0
0.34375 0.21875 0
0.34375 0.1875 0
0.375 0.1875 0
0.34375 0.21875 0
0.375 0.21875 0
0.3125 0.21875 0
0.34375 0.21875 0
0.3125 0.25 0
0.34375 0.25 0
0.34375 0.21875 0
0.375 0.21875 0
0.34375 0.25 0
0.375 0.25 0
0.375 0.125 0
0.40625 0.125 0
0.375 0.15625 0
0.40625 0.15625 0
0.40625 0.125 0
0.4375 0.125 0
0.40625 0.15625 0
0.4375 0.15625 0
0.375 0.15625 0
0.40625 0.15625 0
0.375 0.1875 0
0.40625 0.1875 0
0.40625 0.15625 0
0.4375 0.15625 0
0.40625 0.1875 0
0.4375 0.1875 0
0.4375 0.125 0
0.46875 0.125 0
0.4375 0.15625 0
0.46875 0.15625 0
0.46875 0.125 0
0.5 0.125 0
0.46875 0.15625 0
0.5 0.15625 0
0.4375 0.15625 0
0.46875 0.15625 0
0.4375 0.1875 0
0.46875 0.1875 0
0.46875 0.15625 0
0.5 0.15625 0
0.46875 0.1875 0
0.5 0.1875 0
0.375 0.1875 0
0.40625 0.1875 0
0.375 0.21875 0
0.40625 0.21875 0
0.40625 0.1875 0
0.4375 0.1875 0
0.40625 0.21875 0
0.4375 0.21875 0
0.375 0.21875 0
0.40625 0.21875 0
0.375 0.25 0
0.40625 0.25 0
0.40625 0.21875 0
0.4375 0.21875 0
0.40625 0.25 0
0.4375 0.25 0
0.4375 0.1875 0
0.46875 0.1875 0
0.4375 0.21875 0
0.46875 0.21875 0
0.46875 0.1875 0
0.5 0.1875 0
0.46875 0.21875 0
0.5 0.21875 0
0.4375 0.21875 0
0.46875 0.21875 0
0.4375 0.25 0
0.46875 0.25 0
0.46875 0.21875 0
0.5 0.21875 0
0.46875 0.25 0
0.5 0.25 0
0 0.25 0
0.03125 0.25 0
0 0.28125 0
0.03125 0.28125 0
0.03125 0.25 0
0.0625 0.25 0
0.03125 0.28125 0
0.0625 0.28125 0
0 0.28125 0
0.03125 0.28125 0
0 0.3125 0
0.03125 0.3125 0
0.03125 0.28125 0
0.0625 0.28125 0
0.03125 0.3125 0
0.0625 0.3125 0
0.0625 0.25 0
0.09375 0.25 0
0.0625 0.28125 0
0.09375 0.28125 0
0.09375 0.25 0
0.125 0.25 0
0.09375 0.28125 0
0.125 0.28125 0
0.0625 0.28125 0
0.09375 0.28125 0
0.0625 0.3125 0
0.09375 0.3125 0
0.09375 0.28125 0
0.125 0.28125 0
0.09375 0.3125 0
0.125 0.3125 0
0 0.3125 0
0.03125 0.3125 0
0 0.34375 0
0.03125 0.34375 0
0.03125 0.3125 0
0.0625 0.3125 0
0.03125 0.34375 0
0.0625 0.34375 0
0 0.34375 0
0.03125 0.34375 0
0 0.375 0
0.03125 0.375 0
0.03125 0.34375 0
0.0625 0.34375 0
0.03125 0.375 0
0.0625 0.375 0
0.0625 0.3125 0
0.09375 0.3125 0
0.0625 0.34375 0
0.09375 0.34375 0
0.09375 0.3125 0
0.125 0.3125 0
0.09375 0.34375 0
0.125 0.34375 0
0.0625 0.34375 0
0.09375 0.34375 0
0.0625 0.375 0
0.09375 0.375 0
0.09375 0.34375 0
0.125 0.34375 0
0.09375 0.375 0
0.125 0.375 0
0.125 0.25 0
0.15625 0.25 0
0.125 0.28125 0
0.15625 0.28125 0
0.15625 0.25 0
0.1875 0.25 0
0.15625 0.28125 0
0.1875 0.28125 0
0.125 0.28125 0
0.15625 0.28125 0
0.125 0.3125 0
0.15625 0.3125 0
0.15625 0.28125 0
0.1875 0.28125 0
0.15625 0.3125 0
0.1875 0.3125 0
0.1875 0.25 0
0.21875 0.25 0
0.1875 0.28125 0
0.21875 0.28125 0
0.21875 0.25 0
0.25 0.25 0
0.21875 0.28125 0
0.25 0.28125 0
0.1875 0.28125 0
0.21875 0.28125 0
0.1875 0.3125 0
0.21875 0.3125 0
0.21875 0.28125 0
0.25 0.28125 0
0.21875 0.3125 0
0.25 0.3125 0
0.125 0.3125 0
0.15625 0.3125 0
0.125 0.34375 0
0.15625 0.34375 0
0.15625 0.3125 0
0.1875 0.3125 0
0.15625 0.34375 0
0.1875 0.34375 0
0.125 0.34375 0
[...]
POINT_DATA 4096
SCALARS p double 1
LOOKUP_TABLE default
-1.14372e-05 7.57539e-05 -0.000105056 -1.96864e-05 7.57539e-05 0.000320878 -1.96864e-05 0.000112294 -0.000105056 -1.96864e-05 -0.000351925 -0.000149578 -1.96864e-05 0.000112294 -0.000149578 -1.48074e-05 0.000320878 0.000565239 0.000112294 0.000243917 0.000565239 0.000715149 0.000243917 0.000314887 0.000112294 0.000243917 -1.48074e-05 0.000107152 0.000243917 0.000314887 0.000107152 0.000156495 -0.000351925 -0.000149578 -0.000605603 -0.000282003 -0.000149578 -1.48074e-05 -0.000282003 -0.000129486 -0.000605603 -0.000282003 -0.000773869 -0.000354957 -0.000282003 -0.000129486 -0.000354957 -0.000168722 -1.48074e-05 0.000107152 -0.000129486 -2.75592e-06 0.000107152 0.000156495 -2.75592e-06 3.67024e-05 -0.000129486 -2.75592e-06 -0.000168722 -2.05944e-05 -2.75592e-06 3.67024e-05 -2.05944e-05 2.43557e-05 0.000715149 0.000730568 0.000314887 0.000298107 0.000730568 0.000600264 0.000298107 0.000180553 0.000314887 0.000298107 0.000156495 0.000118252 0.000298107 0.000180553 0.000118252 -2.01064e-05 0.000600264 0.000325927 0.000180553 -4.08382e-05 0.000325927 -8.49134e-05 -4.08382e-05 -0.000363835 0.000180553 -4.08382e-05 -2.01064e-05 -0.000262675 -4.08382e-05 -0.000363835 -0.000262675 -0.000608881 0.000156495 0.000118252 3.67024e-05 -9.9796e-06 0.000118252 -2.01064e-05 -9.9796e-06 -0.000150813 3.67024e-05 -9.9796e-06 2.43557e-05 -2.22272e-05 -9.9796e-06 -0.000150813 -2.22272e-05 -0.000164147 -2.01064e-05 -0.000262675 -0.000150813 -0.000388202 -0.000262675 -0.000608881 -0.000388202 -0.000721906 -0.000150813 -0.000388202 -0.000164147 -0.000401488 -0.000388202 -0.000721906 -0.000401488 -0.000733321 -0.000773869 -0.000354957 -0.00081296 -0.000336606 -0.000354957 -0.000168722 -0.000336606 -0.000110907 -0.00081296 -0.000336606 -0.000704114 -0.000207343 -0.000336606 -0.000110907 -0.000207343 6.44894e-05 -0.000168722 -2.05944e-05 -0.000110907 6.03441e-05 -2.05944e-05 2.43557e-05 6.03441e-05 0.000116851 -0.000110907 6.03441e-05 6.44894e-05 0.000256746 6.03441e-05 0.000116851 0.000256746 0.000327252 -0.000704114 -0.000207343 -0.00043852 4.46359e-05 -0.000207343 6.44894e-05 4.46359e-05 0.000371587 -0.00043852 4.46359e-05 -1.06579e-05 0.000427993 4.46359e-05 0.000371587 0.000427993 0.000821997 6.44894e-05 0.000256746 0.000371587 0.000581345 0.000256746 0.000327252 0.000581345 0.000666293 0.000371587 0.000581345 0.000821997 0.00104598 0.000581345 0.000666293 0.00104598 0.00114522 2.43557e-05 -2.22272e-05 0.000116851 7.51675e-05 -2.22272e-05 -0.000164147 7.51675e-05 -6.5081e-05 0.000116851 7.51675e-05 0.000327252 0.000292207 7.51675e-05 -6.5081e-05 0.000292207 0.000153992 -0.000164147 -0.000401488 -6.5081e-05 -0.00030191 -0.000401488 -0.000733321 -0.00030191 -0.000633461 -6.5081e-05 -0.00030191 0.000153992 -8.39295e-05 -0.00030191 -0.000633461 -8.39295e-05 -0.000418826 0.000327252 0.000292207 0.000666293 0.00063773 0.000292207 0.000153992 0.00063773 0.000500606 0.000666293 0.00063773 0.00114522 0.00112198 0.00063773 0.000500606 0.00112198 0.000984024 0.000153992 -8.39295e-05 0.000500606 0.000259253 -8.39295e-05 -0.000418826 0.000259253 -8.28633e-05 0.000500606 0.000259253 0.000984024 0.000736181 0.000259253 -8.28633e-05 0.000736181 0.000382508 -8.49134e-05 -0.000622533 -0.000363835 -0.000783398 -0.000622533 -0.0012765 -0.000783398 -0.00129292 -0.000363835 -0.000783398 -0.000608881 -0.00105508 -0.000783398 -0.00129292 -0.00105508 -0.00159555 -0.0012765 -0.00203607 -0.00129292 -0.00188482 -0.00203607 -0.00289002 -0.00188482 -0.00255066 -0.00129292 -0.00188482 -0.00159555 -0.00222313 -0.00188482 -0.00255066 -0.00222313 -0.00292933 -0.000608881 -0.00105508 -0.000721906 -0.00114928 -0.00105508 -0.00159555 -0.00114928 -0.00166577 -0.000721906 -0.00114928 -0.000733321 -0.00115711 -0.00114928 -0.00166577 -0.00115711 -0.00166881 -0.00159555 -0.00222313 -0.00166577 -0.00226534 -0.00222313 -0.00292933 -0.00226534 -0.00294045 -0.00166577 -0.00226534 -0.00166881 -0.00226301 -0.00226534 -0.00294045 -0.00226301 -0.0029328 -0.00289002 -0.00382632 -0.00255066 -0.0032811 -0.00382632 -0.00483179 -0.0032811 -0.0040657 -0.00255066 -0.0032811 -0.00292933 -0.00370452 -0.0032811 -0.0040657 -0.00370452 -0.00453765 -0.00483179 -0.00589184 -0.0040657 -0.00489286 -0.00589184 -0.00699034 -0.00489286 -0.00574973 -0.0040657 -0.00489286 -0.00453765 -0.00541639 -0.00489286 -0.00574973 -0.00541639 -0.00632698 -0.00292933 -0.00370452 -0.00294045 -0.0036823 -0.00370452 -0.00453765 -0.0036823 -0.00448057 -0.00294045 -0.0036823 -0.0029328 -0.00366985 -0.0036823 -0.00448057 -0.00366985 -0.00446427 -0.00453765 -0.00541639 -0.00448057 -0.00532356 -0.00541639 -0.00632698 -0.00532356 -0.00619813 -0.00448057 -0.00532356 -0.00446427 -0.00530468 -0.00532356 -0.00619813 -0.00530468 -0.00617811 -0.000733321 -0.00115711 -0.000633461 -0.00105698 -0.00115711 -0.00166881 -0.00105698 -0.00156865 -0.000633461 -0.00105698 -0.000418826 -0.000847625 -0.00105698 -0.00156865 -0.000847625 -0.00136656 -0.00166881 -0.00226301 -0.00156865 -0.00216348 -0.00226301 -0.0029328 -0.00216348 -0.00283504 -0.00156865 -0.00216348 -0.00136656 -0.00197093 -0.00216348 -0.00283504 -0.00197093 -0.00265466 -0.000418826 -0.000847625 -8.28633e-05 -0.000522374 -0.000847625 -0.00136656 -0.000522374 -0.00105556 -8.28633e-05 -0.000522374 0.000382508 -7.34303e-05 -0.000522374 -0.00105556 -7.34303e-05 -0.000627964 -0.00136656 -0.00197093 -0.00105556 -0.00167791 -0.00197093 -0.00265466 -0.00167791 -0.00238362 -0.00105556 -0.00167791 -0.000627964 -0.00127675 -0.00167791 -0.00238362 -0.00127675 -0.00201429 -0.0029328 -0.00366985 -0.00283504 -0.00357546 -0.00366985 -0.00446427 -0.00357546 -0.0043752 -0.00283504 -0.00357546 -0.00265466 -0.00341022 -0.00357546 -0.0043752 -0.00341022 -0.00422837 -0.00446427 -0.00530468 -0.0043752 -0.00522317 -0.00530468 -0.00617811 -0.00522317 -0.00610652 -0.0043752 -0.00522317 -0.00422837 -0.00509818 -0.00522317 -0.00610652 -0.00509818 -0.00600683 -0.00265466 -0.00341022 -0.00238362 -0.00316546 -0.00341022 -0.00422837 -0.00316546 -0.00401444 -0.00238362 -0.00316546 -0.00201429 -0.00283362 -0.00316546 -0.00401444 -0.00283362 -0.003726 -0.00422837 -0.00509818 -0.00401444 -0.00491976 -0.00509818 -0.00600683 -0.00491976 -0.00586851 -0.00401444 -0.00491976 -0.003726 -0.00468073 -0.00491976 -0.00586851 -0.00468073 -0.00568476 -1.06579e-05 0.000427993 0.000585315 0.000950736 0.000427993 0.000821997 0.000950736 0.00142656 0.000585315 0.000950736 0.0013574 0.00162181 0.000950736 0.00142656 0.00162181 0.00219689 0.000821997 0.00104598 0.00142656 0.00166223 0.00104598 0.00114522 0.00166223 0.00177564 0.00142656 0.00166223 0.00219689 0.00244255 0.00166223 0.00177564 0.00244255 0.00257043 0.0013574 0.00162181 0.00231662 0.00245204 0.00162181 0.00219689 0.00245204 0.00314629 0.00231662 0.00245204 0.00347738 0.00345482 0.00245204 0.00314629 0.00345482 0.00429074 0.00219689 0.00244255 0.00314629 0.003401 0.00244255 0.00257043 0.003401 0.00354416 0.00314629 0.003401 0.00429074 0.00455419 0.003401 0.00354416 0.00455419 0.00471395 0.00114522 0.00112198 0.00177564 0.00175624 0.00112198 0.000984024 0.00175624 0.00161509 0.00177564 0.00175624 0.00257043 0.00255336 0.00175624 0.00161509 0.00255336 0.00240653 0.000984024 0.000736181 0.00161509 0.00135732 0.000736181 0.000382508 0.00135732 0.00098752 0.00161509 0.00135732 0.00240653 0.00213531 0.00135732 0.00098752 0.00213531 0.00174478 0.00257043 0.00255336 0.00354416 0.00352816 0.00255336 0.00240653 0.00352816 0.00337327 0.00354416 0.00352816 0.00471395 0.00469799 0.00352816 0.00337327 0.00469799 0.00453281 0.00240653 0.00213531 0.00337327 0.00308512 0.00213531 0.00174478 0.00308512 0.00266946 0.00337327 0.00308512 0.00453281 0.00422447 0.00308512 0.00266946 0.00422447 0.00377953 0.00347738 0.00345482 0.00485772 0.00464641 0.00345482 0.00429074 0.00464641 0.00564939 0.00485772 0.00464641 0.00647969 0.00604664 0.00464641 0.00564939 0.00604664 0.00724538 0.00429074 0.00455419 0.00564939 0.00592178 0.00455419 0.00471395 0.00592178 0.00609994 0.00564939 0.00592178 0.00724538 0.00752737 0.00592178 0.00609994 0.00752737 0.00772611 0.00647969 0.00604664 0.00836981 0.00767943 0.00604664 0.00724538 0.00767943 0.00910659 0.00836981 0.00767943 0.0105598 0.00957379 0.00767943 0.00910659 0.00957379 0.0112669 0.00724538 0.00752737 0.00910659 0.00939912 0.00752737 0.00772611 0.00939912 0.00962082 0.00910659 0.00939912 0.0112669 0.0115712 0.00939912 0.00962082 0.0115712 0.011818 0.00471395 0.00469799 0.00609994 0.00608317 0.00469799 0.00453281 0.00608317 0.00590562 0.00609994 0.00608317 0.00772611 0.0077077 0.00608317 0.00590562 0.0077077 0.00751565 0.00453281 0.00422447 0.00590562 0.00557401 0.00422447 0.00377953 0.00557401 0.00509601 0.00590562 0.00557401 0.00751565 0.00715774 0.00557401 0.00509601 0.00715774 0.00664313 0.00772611 0.0077077 0.00962082 0.00959971 0.0077077 0.00751565 0.00959971 0.0093907 0.00962082 0.00959971 0.011818 0.0117924 0.00959971 0.0093907 0.0117924 0.0115631 0.00751565 0.00715774 0.0093907 0.00900322 0.00715774 0.00664313 0.00900322 0.00844849 0.0093907 0.00900322 0.0115631 0.0111421 0.00900322 0.00844849 0.0111421 0.0105433 0.000382508 -7.34303e-05 0.00098752 0.000509366 -7.34303e-05 -0.000627964 0.000509366 -7.35254e-05 0.00098752 0.000509366 0.00174478 0.00123875 0.000509366 -7.35254e-05 0.00123875 0.000620707 -0.000627964 -0.00127675 -7.35254e-05 -0.000757036 -0.00127675 -0.00201429 -0.000757036 -0.00153603 -7.35254e-05 -0.000757036 0.000620707 -0.000105514 -0.000757036 -0.00153603 -0.000105514 -0.000935201 0.00174478 0.00123875 0.00266946 0.00213019 0.00123875 0.000620707 0.00213019 0.00147065 0.00266946 0.00213019 0.00377953 0.00320209 0.00213019 0.00147065 0.00320209 0.00249528 0.000620707 -0.000105514 0.00147065 0.000694259 -0.000105514 -0.000935201 0.000694259 -0.000194803 0.00147065 0.000694259 0.00249528 0.00166201 0.000694259 -0.000194803 0.00166201 0.000705736 -0.00201429 -0.00283362 -0.00153603 -0.00240388 -0.00283362 -0.003726 -0.00240388 -0.00335213 -0.00153603 -0.00240388 -0.000935201 -0.00186221 -0.00240388 -0.00335213 -0.00186221 -0.00287849 -0.003726 -0.00468073 -0.00335213 -0.00437017 -0.00468073 -0.00568476 -0.00437017 -0.00544488 -0.00335213 -0.00437017 -0.00287849 -0.00397368 -0.00437017 -0.00544488 -0.00397368 -0.0051347 -0.000935201 -0.00186221 -0.000194803 -0.00119104 -0.00186221 -0.00287849 -0.00119104 -0.00228703 -0.000194803 -0.00119104 0.000705736 -0.00036891 -0.00119104 -0.00228703 -0.00036891 -0.00155542 -0.00287849 -0.00397368 -0.00228703 -0.00347288 -0.00397368 -0.0051347 -0.00347288 -0.00473578 -0.00228703 -0.00347288 -0.00155542 -0.00284471 -0.00347288 -0.00473578 -0.00284471 -0.00422462 0.00377953 0.00320209 0.00509601 0.00447599 0.00320209 0.00249528 0.00447599 0.00371689 0.00509601 0.00447599 0.00664313 0.00597662 0.00447599 0.00371689 0.00597662 0.00516099 0.00249528 0.00166201 0.00371689 0.00282095 0.00166201 0.000705736 0.00282095 0.00179071 0.00371689 0.00282095 0.00516099 0.0041977 0.00282095 0.00179071 0.0041977 0.00308818 0.00664313 0.00597662 0.00844849 0.00773198 0.00597662 0.00516099 0.00773198 0.0068563 0.00844849 0.00773198 0.0105433 0.00977319 0.00773198 0.0068563 0.00977319 0.00883446 0.00516099 0.0041977 0.0068563 0.00582214 0.0041977 0.00308818 0.00582214 0.00462964 0.0068563 0.00582214 0.00883446 0.007727 0.00582214 0.00462964 0.007727 0.00644953 0.000705736 -0.00036891 0.00179071 0.000629716 -0.00036891 -0.00155542 0.000629716 -0.000656804 0.00179071 0.000629716 0.00308818 0.00183454 0.000629716 -0.000656804 0.00183454 0.000440373 -0.00155542 -0.00284471 -0.000656804 -0.00206108 -0.00284471 -0.00422462 -0.00206108 -0.00357209 -0.000656804 -0.00206108 0.000440373 -0.0010884 -0.00206108 -0.00357209 -0.0010884 -0.00274265 0.00308818 0.00183454 0.00462964 0.0032792 0.00183454 0.000440373 0.0032792 0.0017723 0.00462964 0.0032792 0.00644953 0.00500052 0.0032792 0.0017723 0.00500052 0.003379 0.000440373 -0.0010884 0.0017723 0.000112399 -0.0010884 -0.00274265 0.000112399 -0.00169407 0.0017723 0.000112399 0.003379 0.00158535 0.000112399 -0.00169407 0.00158535 -0.000377644 -0.00699034 -0.00810961 -0.00574973 -0.00662229 -0.00810961 -0.00923045 -0.00662229 -0.00749534 -0.00574973 -0.00662229 -0.00632698 -0.00725435 -0.00662229 -0.00749534 -0.00725435 -0.00818222 -0.00923045 -0.0103323 -0.00749534 -0.0083527 -0.0103323 -0.0113936 -0.0083527 -0.00917744 -0.00749534 -0.0083527 -0.00818222 -0.00909327 -0.0083527 -0.00917744 -0.00909327 -0.00996942 -0.00632698 -0.00725435 -0.00619813 -0.00708977 -0.00725435 -0.00818222 -0.00708977 -0.00798273 -0.00619813 -0.00708977 -0.00617811 -0.00707015 -0.00708977 -0.00798273 -0.00707015 -0.00796502 -0.00818222 -0.00909327 -0.00798273 -0.00886021 -0.00909327 -0.00996942 -0.00886021 -0.00970471 -0.00798273 -0.00886021 -0.00796502 -0.00884584 -0.00886021 -0.00970471 -0.00884584 -0.00969483 -0.0113936 -0.0123919 -0.00917744 -0.00995221 -0.0123919 -0.0133046 -0.00995221 -0.0106597 -0.00917744 -0.00995221 -0.00996942 -0.0107923 -0.00995221 -0.0106597 -0.0107923 -0.0115435 -0.0133046 -0.0141092 -0.0106597 -0.011283 -0.0141092 -0.0147839 -0.011283 -0.0118066 -0.0106597 -0.011283 -0.0115435 -0.0122059 -0.011283 -0.0118066 -0.0122059 -0.0127636 -0.00996942 -0.0107923 -0.00970471 -0.0104984 -0.0107923 -0.0115435 -0.0104984 -0.0112236 -0.00970471 -0.0104984 -0.00969483 -0.0104939 -0.0104984 -0.0112236 -0.0104939 -0.0112251 -0.0115435 -0.0122059 -0.0112236 -0.0118638 -0.0122059 -0.0127636 -0.0118638 -0.0124041 -0.0112236 -0.0118638 -0.0112251 -0.0118714 -0.0118638 -0.0124041 -0.0118714 -0.0124179 -0.00617811 -0.00707015 -0.00610652 -0.00701087 -0.00707015 -0.00796502 -0.00701087 -0.00792022 -0.00610652 -0.00701087 -0.00600683 -0.00693975 -0.00701087 -0.00792022 -0.00693975 -0.00788053 -0.00796502 -0.00884584 -0.00792022 -0.00881735 -0.00884584 -0.00969483 -0.00881735 -0.00968393 -0.00792022 -0.00881735 -0.00788053 -0.00881126 -0.00881735 -0.00968393 -0.00881126 -0.00971273 -0.00600683 -0.00693975 -0.00586851 -0.0068458 -0.00693975 -0.00788053 -0.0068458 -0.00783461 -0.00586851 -0.0068458 -0.00568476 -0.0067228 -0.0068458 -0.00783461 -0.0067228 -0.00777705 -0.00788053 -0.00881126 -0.00783461 -0.0088161 -0.00881126 -0.00971273 -0.0088161 -0.00976975 -0.00783461 -0.0088161 -0.00777705 -0.00882747 -0.0088161 -0.00976975 -0.00882747 -0.00985189 -0.00969483 -0.0104939 -0.00968393 -0.0105012 -0.0104939 -0.0112251 -0.0105012 -0.0112504 -0.00968393 -0.0105012 -0.00971273 -0.010565 -0.0105012 -0.0112504 -0.010565 -0.011348 -0.0112251 -0.0118714 -0.0112504 -0.0119137 -0.0118714 -0.0124179 -0.0119137 -0.012475 -0.0112504 -0.0119137 -0.011348 -0.0120423 -0.0119137 -0.012475 -0.0120423 -0.0126302 -0.00971273 -0.010565 -0.00976975 -0.010674 -0.010565 -0.011348 -0.010674 -0.0115068 -0.00976975 -0.010674 -0.00985189 -0.0108266 -0.010674 -0.0115068 -0.0108266 -0.0117271 -0.011348 -0.0120423 -0.0115068 -0.0122467 -0.0120423 -0.0126302 -0.0122467 -0.0128737 -0.0115068 -0.0122467 -0.0117271 -0.0125289 -0.0122467 -0.0128737 -0.0125289 -0.0132093 -0.0147839 -0.0153092 -0.0118066 -0.012217 -0.0153092 -0.0156683 -0.012217 -0.0125049 -0.0118066 -0.012217 -0.0127636 -0.0132037 -0.012217 -0.0125049 -0.0132037 -0.0135178 -0.0156683 -0.0158527 -0.0125049 -0.0126639 -0.0158527 -0.0158554 -0.0126639 -0.0127115 -0.0125049 -0.0126639 -0.0135178 -0.0137017 -0.0126639 -0.0127115 -0.0137017 -0.013771 -0.0127636 -0.0132037 -0.0124041 -0.0128325 -0.0132037 -0.0135178 -0.0128325 -0.0131415 -0.0124041 -0.0128325 -0.0124179 -0.012852 -0.0128325 -0.0131415 -0.012852 -0.0131657 -0.0135178 -0.0137017 -0.0131415 -0.0133269 -0.0137017 -0.013771 -0.0133269 -0.0134032 -0.0131415 -0.0133269 -0.0131657 -0.013354 -0.0133269 -0.0134032 -0.013354 -0.0134291 -0.0158554 -0.0157301 -0.0127115 -0.012598 -0.0157301 -0.0154718 -0.012598 -0.0127108 -0.0127115 -0.012598 -0.013771 -0.0136855 -0.012598 -0.0127108 -0.0136855 -0.0137916 -0.0154718 -0.014485 -0.0127108 -0.0113383 -0.014485 -0.0157689 -0.0113383 -0.0142915 -0.0127108 -0.0113383 -0.0137916 -0.0124309 -0.0113383 -0.0142915 -0.0124309 -0.0147537 -0.013771 -0.0136855 -0.0134032 -0.0133232 -0.0136855 -0.0137916 -0.0133232 -0.0134334 -0.0134032 -0.0133232 -0.0134291 -0.013341 -0.0133232 -0.0134334 -0.013341 -0.0134233 -0.0137916 -0.0124309 -0.0134334 -0.0120363 -0.0124309 -0.0147537 -0.0120363 -0.0144823 -0.0134334 -0.0120363 -0.0134233 -0.0119951 -0.0120363 -0.0144823 -0.0119951 -0.0142696 -0.0124179 -0.012852 -0.012475 -0.0129209 -0.012852 -0.0131657 -0.0129209 -0.0132425 -0.012475 -0.0129209 -0.0126302 -0.0130969 -0.0129209 -0.0132425 -0.0130969 -0.0134318 -0.0131657 -0.013354 -0.0132425 -0.0134329 -0.013354 -0.0134291 -0.0134329 -0.0135028 -0.0132425 -0.0134329 -0.0134318 -0.0136266 -0.0134329 -0.0135028 -0.0136266 -0.0136908 -0.0126302 -0.0130969 -0.0128737 -0.0133709 -0.0130969 -0.0134318 -0.0133709 -0.0137258 -0.0128737 -0.0133709 -0.0132093 -0.0137486 -0.0133709 -0.0137258 -0.0137486 -0.0141319 -0.0134318 -0.0136266 -0.0137258 -0.0139288 -0.0136266 -0.0136908 -0.0139288 -0.0139885 -0.0137258 -0.0139288 -0.0141319 -0.0143482 -0.0139288 -0.0139885 -0.0143482 -0.0144058 -0.0134291 -0.013341 -0.0135028 -0.0133996 -0.013341 -0.0134233 -0.0133996 -0.0134534 -0.0135028 -0.0133996 -0.0136908 -0.01357 -0.0133996 -0.0134534 -0.01357 -0.013596 -0.0134233 -0.0119951 -0.0134534 -0.0119817 -0.0119951 -0.0142696 -0.0119817 -0.0142074 -0.0134534 -0.0119817 -0.013596 -0.012077 -0.0119817 -0.0142074 -0.012077 -0.0142702 -0.0136908 -0.01357 -0.0139885 -0.0138496 -0.01357 -0.013596 -0.0138496 -0.0138502 -0.0139885 -0.0138496 -0.0144058 -0.0142487 -0.0138496 -0.0138502 -0.0142487 -0.0142252 -0.013596 -0.012077 -0.0138502 -0.0122748 -0.012077 -0.0142702 -0.0122748 -0.0144662 -0.0138502 -0.0122748 -0.0142252 -0.0125814 -0.0122748 -0.0144662 -0.0125814 -0.0147929 -0.00568476 -0.0067228 -0.00544488 -0.00656054 -0.0067228 -0.00777705 -0.00656054 -0.00769849 -0.00544488 -0.00656054 -0.0051347 -0.00634543 -0.00656054 -0.00769849 -0.00634543 -0.00758636 -0.00777705 -0.00882747 -0.00769849 -0.00883727 -0.00882747 -0.00985189 -0.00883727 -0.00995269 -0.00769849 -0.00883727 -0.00758636 -0.00883444 -0.00883727 -0.00995269 -0.00883444 -0.0100632 -0.0051347 -0.00634543 -0.00473578 -0.00605941 -0.00634543 -0.00758636 -0.00605941 -0.00742352 -0.00473578 -0.00605941 -0.00422462 -0.00567902 -0.00605941 -0.00742352 -0.00567902 -0.00718722 -0.00758636 -0.00883444 -0.00742352 -0.00880349 -0.00883444 -0.0100632 -0.00880349 -0.0101703 -0.00742352 -0.00880349 -0.00718722 -0.00872324 -0.00880349 -0.0101703 -0.00872324 -0.0102554 -0.00985189 -0.0108266 -0.00995269 -0.0110184 -0.0108266 -0.0117271 -0.0110184 -0.0120066 -0.00995269 -0.0110184 -0.0100632 -0.011243 -0.0110184 -0.0120066 -0.011243 -0.0123422 -0.0117271 -0.0125289 -0.0120066 -0.0128893 -0.0125289 -0.0132093 -0.0128893 -0.0136399 -0.0120066 -0.0128893 -0.0123422 -0.0133279 -0.0128893 -0.0136399 -0.0133279 -0.0141689 -0.0100632 -0.011243 -0.0101703 -0.0114907 -0.011243 -0.0123422 -0.0114907 -0.0127279 -0.0101703 -0.0114907 -0.0102554 -0.0117464 -0.0114907 -0.0127279 -0.0117464 -0.0131537 -0.0123422 -0.0133279 -0.0127279 -0.0138434 -0.0133279 -0.0141689 -0.0138434 -0.0147995 -0.0127279 -0.0138434 -0.0131537 -0.0144314 -0.0138434 -0.0147995 -0.0144314 -0.0155335 -0.00422462 -0.00567902 -0.00357209 -0.00517449 -0.00567902 -0.00718722 -0.00517449 -0.00684781 -0.00357209 -0.00517449 -0.00274265 -0.00450868 -0.00517449 -0.00684781 -0.00450868 -0.00636717 -0.00718722 -0.00872324 -0.00684781 -0.00856516 -0.00872324 -0.0102554 -0.00856516 -0.0102926 -0.00684781 -0.00856516 -0.00636717 -0.00829132 -0.00856516 -0.0102926 -0.00829132 -0.0102455 -0.00274265 -0.00450868 -0.00169407 -0.00363626 -0.00450868 -0.00636717 -0.00363626 -0.00569735 -0.00169407 -0.00363626 -0.000377644 -0.00250338 -0.00363626 -0.00569735 -0.00250338 -0.00477934 -0.00636717 -0.00829132 -0.00569735 -0.00785217 -0.00829132 -0.0102455 -0.00785217 -0.010065 -0.00569735 -0.00785217 -0.00477934 -0.00718427 -0.00785217 -0.010065 -0.00718427 -0.00968484 -0.0102554 -0.0117