# vtk DataFile Version 3.0
#This file was generated by the deal.II library on 2026/1/5 at 14:19:31
ASCII
DATASET UNSTRUCTURED_GRID

POINTS 4096 double
0 0 0
0.03125 0 0
0 0.03125 0
0.03125 0.03125 0
0.03125 0 0
0.0625 0 0
0.03125 0.03125 0
0.0625 0.03125 0
0 0.03125 0
0.03125 0.03125 0
0 0.0625 0
0.03125 0.0625 0
0.03125 0.03125 0
0.0625 0.03125 0
0.03125 0.0625 0
0.0625 0.0625 0
0.0625 0 0
0.09375 0 0
0.0625 0.03125 0
0.09375 0.03125 0
0.09375 0 0
0.125 0 0
0.09375 0.03125 0
0.125 0.03125 0
0.0625 0.03125 0
0.09375 0.03125 0
0.0625 0.0625 0
0.09375 0.0625 0
0.09375 0.03125 0
0.125 0.03125 0
0.09375 0.0625 0
0.125 0.0625 0
0 0.0625 0
0.03125 0.0625 0
0 0.09375 0
0.03125 0.09375 0
0.03125 0.0625 0
0.0625 0.0625 0
0.03125 0.09375 0
0.0625 0.09375 0
0 0.09375 0
0.03125 0.09375 0
0 0.125 0
0.03125 0.125 0
0.03125 0.09375 0
0.0625 0.09375 0
0.03125 0.125 0
0.0625 0.125 0
0.0625 0.0625 0
0.09375 0.0625 0
0.0625 0.09375 0
0.09375 0.09375 0
0.09375 0.0625 0
0.125 0.0625 0
0.09375 0.09375 0
0.125 0.09375 0
0.0625 0.09375 0
0.09375 0.09375 0
0.0625 0.125 0
0.09375 0.125 0
0.09375 0.09375 0
0.125 0.09375 0
0.09375 0.125 0
0.125 0.125 0
0.125 0 0
0.15625 0 0
0.125 0.03125 0
0.15625 0.03125 0
0.15625 0 0
0.1875 0 0
0.15625 0.03125 0
0.1875 0.03125 0
0.125 0.03125 0
0.15625 0.03125 0
0.125 0.0625 0
0.15625 0.0625 0
0.15625 0.03125 0
0.1875 0.03125 0
0.15625 0.0625 0
0.1875 0.0625 0
0.1875 0 0
0.21875 0 0
0.1875 0.03125 0
0.21875 0.03125 0
0.21875 0 0
0.25 0 0
0.21875 0.03125 0
0.25 0.03125 0
0.1875 0.03125 0
0.21875 0.03125 0
0.1875 0.0625 0
0.21875 0.0625 0
0.21875 0.03125 0
0.25 0.03125 0
0.21875 0.0625 0
0.25 0.0625 0
0.125 0.0625 0
0.15625 0.0625 0
0.125 0.09375 0
0.15625 0.09375 0
0.15625 0.0625 0
0.1875 0.0625 0
0.15625 0.09375 0
0.1875 0.09375 0
0.125 0.09375 0
0.15625 0.09375 0
0.125 0.125 0
0.15625 0.125 0
0.15625 0.09375 0
0.1875 0.09375 0
0.15625 0.125 0
0.1875 0.125 0
0.1875 0.0625 0
0.21875 0.0625 0
0.1875 0.09375 0
0.21875 0.09375 0
0.21875 0.0625 0
0.25 0.0625 0
0.21875 0.09375 0
0.25 0.09375 0
0.1875 0.09375 0
0.21875 0.09375 0
0.1875 0.125 0
0.21875 0.125 0
0.21875 0.09375 0
0.25 0.09375 0
0.21875 0.125 0
0.25 0.125 0
0 0.125 0
0.03125 0.125 0
0 0.15625 0
0.03125 0.15625 0
0.03125 0.125 0
0.0625 0.125 0
0.03125 0.15625 0
0.0625 0.15625 0
0 0.15625 0
0.03125 0.15625 0
0 0.1875 0
0.03125 0.1875 0
0.03125 0.15625 0
0.0625 0.15625 0
0.03125 0.1875 0
0.0625 0.1875 0
0.0625 0.125 0
0.09375 0.125 0
0.0625 0.15625 0
0.09375 0.15625 0
0.09375 0.125 0
0.125 0.125 0
0.09375 0.15625 0
0.125 0.15625 0
0.0625 0.15625 0
0.09375 0.15625 0
0.0625 0.1875 0
0.09375 0.1875 0
0.09375 0.15625 0
0.125 0.15625 0
0.09375 0.1875 0
0.125 0.1875 0
0 0.1875 0
0.03125 0.1875 0
0 0.21875 0
0.03125 0.21875 0
0.03125 0.1875 0
0.0625 0.1875 0
0.03125 0.21875 0
0.0625 0.21875 0
0 0.21875 0
0.03125 0.21875 0
0 0.25 0
0.03125 0.25 0
0.03125 0.21875 0
0.0625 0.21875 0
0.03125 0.25 0
0.0625 0.25 0
0.0625 0.1875 0
0.09375 0.1875 0
0.0625 0.21875 0
0.09375 0.21875 0
0.09375 0.1875 0
0.125 0.1875 0
0.09375 0.21875 0
0.125 0.21875 0
0.0625 0.21875 0
0.09375 0.21875 0
0.0625 0.25 0
0.09375 0.25 0
0.09375 0.21875 0
0.125 0.21875 0
0.09375 0.25 0
0.125 0.25 0
0.125 0.125 0
0.15625 0.125 0
0.125 0.15625 0
0.15625 0.15625 0
0.15625 0.125 0
0.1875 0.125 0
0.15625 0.15625 0
0.1875 0.15625 0
0.125 0.15625 0
0.15625 0.15625 0
0.125 0.1875 0
0.15625 0.1875 0
0.15625 0.15625 0
0.1875 0.15625 0
0.15625 0.1875 0
0.1875 0.1875 0
0.1875 0.125 0
0.21875 0.125 0
0.1875 0.15625 0
0.21875 0.15625 0
0.21875 0.125 0
0.25 0.125 0
0.21875 0.15625 0
0.25 0.15625 0
0.1875 0.15625 0
0.21875 0.15625 0
0.1875 0.1875 0
0.21875 0.1875 0
0.21875 0.15625 0
0.25 0.15625 0
0.21875 0.1875 0
0.25 0.1875 0
0.125 0.1875 0
0.15625 0.1875 0
0.125 0.21875 0
0.15625 0.21875 0
0.15625 0.1875 0
0.1875 0.1875 0
0.15625 0.21875 0
0.1875 0.21875 0
0.125 0.21875 0
0.15625 0.21875 0
0.125 0.25 0
0.15625 0.25 0
0.15625 0.21875 0
0.1875 0.21875 0
0.15625 0.25 0
0.1875 0.25 0
0.1875 0.1875 0
0.21875 0.1875 0
0.1875 0.21875 0
0.21875 0.21875 0
0.21875 0.1875 0
0.25 0.1875 0
0.21875 0.21875 0
0.25 0.21875 0
0.1875 0.21875 0
0.21875 0.21875 0
0.1875 0.25 0
0.21875 0.25 0
0.21875 0.21875 0
0.25 0.21875 0
0.21875 0.25 0
0.25 0.25 0
0.25 0 0
0.28125 0 0
0.25 0.03125 0
0.28125 0.03125 0
0.28125 0 0
0.3125 0 0
0.28125 0.03125 0
0.3125 0.03125 0
0.25 0.03125 0
0.28125 0.03125 0
0.25 0.0625 0
0.28125 0.0625 0
0.28125 0.03125 0
0.3125 0.03125 0
0.28125 0.0625 0
0.3125 0.0625 0
0.3125 0 0
0.34375 0 0
0.3125 0.03125 0
0.34375 0.03125 0
0.34375 0 0
0.375 0 0
0.34375 0.03125 0
0.375 0.03125 0
0.3125 0.03125 0
0.34375 0.03125 0
0.3125 0.0625 0
0.34375 0.0625 0
0.34375 0.03125 0
0.375 0.03125 0
0.34375 0.0625 0
0.375 0.0625 0
0.25 0.0625 0
0.28125 0.0625 0
0.25 0.09375 0
0.28125 0.09375 0
0.28125 0.0625 0
0.3125 0.0625 0
0.28125 0.09375 0
0.3125 0.09375 0
0.25 0.09375 0
0.28125 0.09375 0
0.25 0.125 0
0.28125 0.125 0
0.28125 0.09375 0
0.3125 0.09375 0
0.28125 0.125 0
0.3125 0.125 0
0.3125 0.0625 0
0.34375 0.0625 0
0.3125 0.09375 0
0.34375 0.09375 0
0.34375 0.0625 0
0.375 0.0625 0
0.34375 0.09375 0
0.375 0.09375 0
0.3125 0.09375 0
0.34375 0.09375 0
0.3125 0.125 0
0.34375 0.125 0
0.34375 0.09375 0
0.375 0.09375 0
0.34375 0.125 0
0.375 0.125 0
0.375 0 0
0.40625 0 0
0.375 0.03125 0
0.40625 0.03125 0
0.40625 0 0
0.4375 0 0
0.40625 0.03125 0
0.4375 0.03125 0
0.375 0.03125 0
0.40625 0.03125 0
0.375 0.0625 0
0.40625 0.0625 0
0.40625 0.03125 0
0.4375 0.03125 0
0.40625 0.0625 0
0.4375 0.0625 0
0.4375 0 0
0.46875 0 0
0.4375 0.03125 0
0.46875 0.03125 0
0.46875 0 0
0.5 0 0
0.46875 0.03125 0
0.5 0.03125 0
0.4375 0.03125 0
0.46875 0.03125 0
0.4375 0.0625 0
0.46875 0.0625 0
0.46875 0.03125 0
0.5 0.03125 0
0.46875 0.0625 0
0.5 0.0625 0
0.375 0.0625 0
0.40625 0.0625 0
0.375 0.09375 0
0.40625 0.09375 0
0.40625 0.0625 0
0.4375 0.0625 0
0.40625 0.09375 0
0.4375 0.09375 0
0.375 0.09375 0
0.40625 0.09375 0
0.375 0.125 0
0.40625 0.125 0
0.40625 0.09375 0
0.4375 0.09375 0
0.40625 0.125 0
0.4375 0.125 0
0.4375 0.0625 0
0.46875 0.0625 0
0.4375 0.09375 0
0.46875 0.09375 0
0.46875 0.0625 0
0.5 0.0625 0
0.46875 0.09375 0
0.5 0.09375 0
0.4375 0.09375 0
0.46875 0.09375 0
0.4375 0.125 0
0.46875 0.125 0
0.46875 0.09375 0
0.5 0.09375 0
0.46875 0.125 0
0.5 0.125 0
0.25 0.125 0
0.28125 0.125 0
0.25 0.15625 0
0.28125 0.15625 0
0.28125 0.125 0
0.3125 0.125 0
0.28125 0.15625 0
0.3125 0.15625 0
0.25 0.15625 0
0.28125 0.15625 0
0.25 0.1875 0
0.28125 0.1875 0
0.28125 0.15625 0
0.3125 0.15625 0
0.28125 0.1875 0
0.3125 0.1875 0
0.3125 0.125 0
0.34375 0.125 0
0.3125 0.15625 0
0.34375 0.15625 0
0.34375 0.125 0
0.375 0.125 0
0.34375 0.15625 0
0.375 0.15625 0
0.3125 0.15625 0
0.34375 0.15625 0
0.3125 0.1875 0
0.34375 0.1875 0
0.34375 0.15625 0
0.375 0.15625 0
0.34375 0.1875 0
0.375 0.1875 0
0.25 0.1875 0
0.28125 0.1875 0
0.25 0.21875 0
0.28125 0.21875 0
0.28125 0.1875 0
0.3125 0.1875 0
0.28125 0.21875 0
0.3125 0.21875 0
0.25 0.21875 0
0.28125 0.21875 0
0.25 0.25 0
0.28125 0.25 0
0.28125 0.21875 0
0.3125 0.21875 0
0.28125 0.25 0
0.3125 0.25 0
0.3125 0.1875 0
0.34375 0.1875 0
0.3125 0.21875 0
0.34375 0.21875 0
0.34375 0.1875 0
0.375 0.1875 0
0.34375 0.21875 0
0.375 0.21875 0
0.3125 0.21875 0
0.34375 0.21875 0
0.3125 0.25 0
0.34375 0.25 0
0.34375 0.21875 0
0.375 0.21875 0
0.34375 0.25 0
0.375 0.25 0
0.375 0.125 0
0.40625 0.125 0
0.375 0.15625 0
0.40625 0.15625 0
0.40625 0.125 0
0.4375 0.125 0
0.40625 0.15625 0
0.4375 0.15625 0
0.375 0.15625 0
0.40625 0.15625 0
0.375 0.1875 0
0.40625 0.1875 0
0.40625 0.15625 0
0.4375 0.15625 0
0.40625 0.1875 0
0.4375 0.1875 0
0.4375 0.125 0
0.46875 0.125 0
0.4375 0.15625 0
0.46875 0.15625 0
0.46875 0.125 0
0.5 0.125 0
0.46875 0.15625 0
0.5 0.15625 0
0.4375 0.15625 0
0.46875 0.15625 0
0.4375 0.1875 0
0.46875 0.1875 0
0.46875 0.15625 0
0.5 0.15625 0
0.46875 0.1875 0
0.5 0.1875 0
0.375 0.1875 0
0.40625 0.1875 0
0.375 0.21875 0
0.40625 0.21875 0
0.40625 0.1875 0
0.4375 0.1875 0
0.40625 0.21875 0
0.4375 0.21875 0
0.375 0.21875 0
0.40625 0.21875 0
0.375 0.25 0
0.40625 0.25 0
0.40625 0.21875 0
0.4375 0.21875 0
0.40625 0.25 0
0.4375 0.25 0
0.4375 0.1875 0
0.46875 0.1875 0
0.4375 0.21875 0
0.46875 0.21875 0
0.46875 0.1875 0
0.5 0.1875 0
0.46875 0.21875 0
0.5 0.21875 0
0.4375 0.21875 0
0.46875 0.21875 0
0.4375 0.25 0
0.46875 0.25 0
0.46875 0.21875 0
0.5 0.21875 0
0.46875 0.25 0
0.5 0.25 0
0 0.25 0
0.03125 0.25 0
0 0.28125 0
0.03125 0.28125 0
0.03125 0.25 0
0.0625 0.25 0
0.03125 0.28125 0
0.0625 0.28125 0
0 0.28125 0
0.03125 0.28125 0
0 0.3125 0
0.03125 0.3125 0
0.03125 0.28125 0
0.0625 0.28125 0
0.03125 0.3125 0
0.0625 0.3125 0
0.0625 0.25 0
0.09375 0.25 0
0.0625 0.28125 0
0.09375 0.28125 0
0.09375 0.25 0
0.125 0.25 0
0.09375 0.28125 0
0.125 0.28125 0
0.0625 0.28125 0
0.09375 0.28125 0
0.0625 0.3125 0
0.09375 0.3125 0
0.09375 0.28125 0
0.125 0.28125 0
0.09375 0.3125 0
0.125 0.3125 0
0 0.3125 0
0.03125 0.3125 0
0 0.34375 0
0.03125 0.34375 0
0.03125 0.3125 0
0.0625 0.3125 0
0.03125 0.34375 0
0.0625 0.34375 0
0 0.34375 0
0.03125 0.34375 0
0 0.375 0
0.03125 0.375 0
0.03125 0.34375 0
0.0625 0.34375 0
0.03125 0.375 0
0.0625 0.375 0
0.0625 0.3125 0
0.09375 0.3125 0
0.0625 0.34375 0
0.09375 0.34375 0
0.09375 0.3125 0
0.125 0.3125 0
0.09375 0.34375 0
0.125 0.34375 0
0.0625 0.34375 0
0.09375 0.34375 0
0.0625 0.375 0
0.09375 0.375 0
0.09375 0.34375 0
0.125 0.34375 0
0.09375 0.375 0
0.125 0.375 0
0.125 0.25 0
0.15625 0.25 0
0.125 0.28125 0
0.15625 0.28125 0
0.15625 0.25 0
0.1875 0.25 0
0.15625 0.28125 0
0.1875 0.28125 0
0.125 0.28125 0
0.15625 0.28125 0
0.125 0.3125 0
0.15625 0.3125 0
0.15625 0.28125 0
0.1875 0.28125 0
0.15625 0.3125 0
0.1875 0.3125 0
0.1875 0.25 0
0.21875 0.25 0
0.1875 0.28125 0
0.21875 0.28125 0
0.21875 0.25 0
0.25 0.25 0
0.21875 0.28125 0
0.25 0.28125 0
0.1875 0.28125 0
0.21875 0.28125 0
0.1875 0.3125 0
0.21875 0.3125 0
0.21875 0.28125 0
0.25 0.28125 0
0.21875 0.3125 0
0.25 0.3125 0
0.125 0.3125 0
0.15625 0.3125 0
0.125 0.34375 0
0.15625 0.34375 0
0.15625 0.3125 0
0.1875 0.3125 0
0.15625 0.34375 0
0.1875 0.34375 0
0.125 0.34375 0
[...]
POINT_DATA 4096
SCALARS p double 1
LOOKUP_TABLE default
-6.75942e-08 0.000115447 -0.0001159 2.70745e-08 0.000115447 0.00034471 2.70745e-08 0.000111452 -0.0001159 2.70745e-08 -0.000347868 -0.000110894 2.70745e-08 0.000111452 -0.000110894 2.83898e-06 0.00034471 0.000488292 0.000111452 0.000172025 0.000488292 0.000469986 0.000172025 0.000125769 0.000111452 0.000172025 2.83898e-06 5.06658e-05 0.000172025 0.000125769 5.06658e-05 -1.88221e-05 -0.000347868 -0.000110894 -0.000499908 -0.000171222 -0.000110894 2.83898e-06 -0.000171222 -3.75797e-05 -0.000499908 -0.000171222 -0.000495545 -0.000123139 -0.000171222 -3.75797e-05 -0.000123139 4.46424e-05 2.83898e-06 5.06658e-05 -3.75797e-05 1.40734e-05 5.06658e-05 -1.88221e-05 1.40734e-05 -5.91695e-05 -3.75797e-05 1.40734e-05 4.46424e-05 0.000108461 1.40734e-05 -5.91695e-05 0.000108461 3.8159e-05 0.000469986 0.000272536 0.000125769 -4.43833e-05 0.000272536 -9.78271e-05 -4.43833e-05 -0.000341963 0.000125769 -4.43833e-05 -1.88221e-05 -0.00021432 -4.43833e-05 -0.000341963 -0.00021432 -0.000541257 -9.78271e-05 -0.000629232 -0.000341963 -0.000763027 -0.000629232 -0.00130933 -0.000763027 -0.0013008 -0.000341963 -0.000763027 -0.000541257 -0.000997758 -0.000763027 -0.0013008 -0.000997758 -0.00157855 -1.88221e-05 -0.00021432 -5.91695e-05 -0.000254957 -0.00021432 -0.000541257 -0.000254957 -0.000576529 -5.91695e-05 -0.000254957 3.8159e-05 -0.000159396 -0.000254957 -0.000576529 -0.000159396 -0.000484435 -0.000541257 -0.000997758 -0.000576529 -0.00102216 -0.000997758 -0.00157855 -0.00102216 -0.00158758 -0.000576529 -0.00102216 -0.000484435 -0.000934293 -0.00102216 -0.00158758 -0.000934293 -0.00150458 -0.000495545 -0.000123139 -0.000312725 5.50739e-05 -0.000123139 4.46424e-05 5.50739e-05 0.000264079 -0.000312725 5.50739e-05 5.0966e-05 0.000374254 5.50739e-05 0.000264079 0.000374254 0.000634475 4.46424e-05 0.000108461 0.000264079 0.000337808 0.000108461 3.8159e-05 0.000337808 0.000272974 0.000264079 0.000337808 0.000634475 0.000713693 0.000337808 0.000272974 0.000713693 0.000653886 5.0966e-05 0.000374254 0.000595784 0.00084052 0.000374254 0.000634475 0.00084052 0.0011651 0.000595784 0.00084052 0.00132507 0.00146008 0.00084052 0.0011651 0.00146008 0.00186503 0.000634475 0.000713693 0.0011651 0.00124534 0.000713693 0.000653886 0.00124534 0.00118916 0.0011651 0.00124534 0.00186503 0.00194247 0.00124534 0.00118916 0.00194247 0.00188837 3.8159e-05 -0.000159396 0.000272974 7.44218e-05 -0.000159396 -0.000484435 7.44218e-05 -0.000255254 0.000272974 7.44218e-05 0.000653886 0.000452261 7.44218e-05 -0.000255254 0.000452261 0.000114112 -0.000484435 -0.000934293 -0.000255254 -0.000712534 -0.000934293 -0.00150458 -0.000712534 -0.0012926 -0.000255254 -0.000712534 0.000114112 -0.000356531 -0.000712534 -0.0012926 -0.000356531 -0.000954302 0.000653886 0.000452261 0.00118916 0.000981448 0.000452261 0.000114112 0.000981448 0.000630416 0.00118916 0.000981448 0.00188837 0.00167099 0.000981448 0.000630416 0.00167099 0.00130207 0.000114112 -0.000356531 0.000630416 0.000140299 -0.000356531 -0.000954302 0.000140299 -0.000482998 0.000630416 0.000140299 0.00130207 0.000785795 0.000140299 -0.000482998 0.000785795 0.000128633 -0.00130933 -0.00212626 -0.0013008 -0.0019472 -0.00212626 -0.00306812 -0.0019472 -0.00269325 -0.0013008 -0.0019472 -0.00157855 -0.00227613 -0.0019472 -0.00269325 -0.00227613 -0.00308142 -0.00306812 -0.00412236 -0.00269325 -0.00352909 -0.00412236 -0.00527537 -0.00352909 -0.00444389 -0.00269325 -0.00352909 -0.00308142 -0.00398408 -0.00352909 -0.00444389 -0.00398408 -0.00497251 -0.00157855 -0.00227613 -0.00158758 -0.00226627 -0.00227613 -0.00308142 -0.00226627 -0.00304996 -0.00158758 -0.00226627 -0.00150458 -0.00218901 -0.00226627 -0.00304996 -0.00218901 -0.00297957 -0.00308142 -0.00398408 -0.00304996 -0.00392894 -0.00398408 -0.00497251 -0.00392894 -0.0048921 -0.00304996 -0.00392894 -0.00297957 -0.00386672 -0.00392894 -0.0048921 -0.00386672 -0.00483948 -0.00527537 -0.00651235 -0.00444389 -0.00542582 -0.00651235 -0.00781725 -0.00542582 -0.006462 -0.00444389 -0.00542582 -0.00497251 -0.00603393 -0.00542582 -0.006462 -0.00603393 -0.00715441 -0.00781725 -0.00917284 -0.006462 -0.00753865 -0.00917284 -0.0105608 -0.00753865 -0.00864112 -0.006462 -0.00753865 -0.00715441 -0.00831897 -0.00753865 -0.00864112 -0.00831897 -0.00951172 -0.00497251 -0.00603393 -0.0048921 -0.00592711 -0.00603393 -0.00715441 -0.00592711 -0.00702045 -0.0048921 -0.00592711 -0.00483948 -0.00588556 -0.00592711 -0.00702045 -0.00588556 -0.00699142 -0.00715441 -0.00831897 -0.00702045 -0.00815754 -0.00831897 -0.00951172 -0.00815754 -0.00932286 -0.00702045 -0.00815754 -0.00699142 -0.00814242 -0.00815754 -0.00932286 -0.00814242 -0.00932289 -0.00150458 -0.00218901 -0.0012926 -0.00198905 -0.00218901 -0.00297957 -0.00198905 -0.00279391 -0.0012926 -0.00198905 -0.000954302 -0.00167253 -0.00198905 -0.00279391 -0.00167253 -0.00250309 -0.00297957 -0.00386672 -0.00279391 -0.00369767 -0.00386672 -0.00483948 -0.00369767 -0.00468935 -0.00279391 -0.00369767 -0.00250309 -0.00343631 -0.00369767 -0.00468935 -0.00343631 -0.00446107 -0.000954302 -0.00167253 -0.000482998 -0.00123248 -0.00167253 -0.00250309 -0.00123248 -0.0020997 -0.000482998 -0.00123248 0.000128633 -0.000662021 -0.00123248 -0.0020997 -0.000662021 -0.00157734 -0.00250309 -0.00343631 -0.0020997 -0.00307473 -0.00343631 -0.00446107 -0.00307473 -0.00414619 -0.0020997 -0.00307473 -0.00157734 -0.00260703 -0.00307473 -0.00414619 -0.00260703 -0.0037393 -0.00483948 -0.00588556 -0.00468935 -0.00575663 -0.00588556 -0.00699142 -0.00575663 -0.00688587 -0.00468935 -0.00575663 -0.00446107 -0.00556486 -0.00575663 -0.00688587 -0.00556486 -0.00673378 -0.00699142 -0.00814242 -0.00688587 -0.00806228 -0.00814242 -0.00932289 -0.00806228 -0.00926993 -0.00688587 -0.00806228 -0.00673378 -0.00795274 -0.00806228 -0.00926993 -0.00795274 -0.00920543 -0.00446107 -0.00556486 -0.00414619 -0.00530122 -0.00556486 -0.00673378 -0.00530122 -0.00652559 -0.00414619 -0.00530122 -0.0037393 -0.00496089 -0.00530122 -0.00652559 -0.00496089 -0.00625707 -0.00673378 -0.00795274 -0.00652559 -0.00780373 -0.00795274 -0.00920543 -0.00780373 -0.00911879 -0.00652559 -0.00780373 -0.00625707 -0.00761171 -0.00780373 -0.00911879 -0.00761171 -0.00900731 0.00132507 0.00146008 0.00224653 0.00224109 0.00146008 0.00186503 0.00224109 0.00274466 0.00224653 0.00224109 0.00337201 0.00319431 0.00224109 0.00274466 0.00319431 0.00381681 0.00186503 0.00194247 0.00274466 0.00281613 0.00194247 0.00188837 0.00281613 0.00276273 0.00274466 0.00281613 0.00381681 0.00387953 0.00281613 0.00276273 0.00387953 0.00382564 0.00337201 0.00319431 0.00471723 0.00433341 0.00319431 0.00381681 0.00433341 0.00509728 0.00471723 0.00433341 0.00630162 0.0056752 0.00433341 0.00509728 0.0056752 0.00660524 0.00381681 0.00387953 0.00509728 0.00514862 0.00387953 0.00382564 0.00514862 0.00509319 0.00509728 0.00514862 0.00660524 0.0066426 0.00514862 0.00509319 0.0066426 0.00658461 0.00188837 0.00167099 0.00276273 0.00253189 0.00167099 0.00130207 0.00253189 0.00213968 0.00276273 0.00253189 0.00382564 0.00357739 0.00253189 0.00213968 0.00357739 0.00315615 0.00130207 0.000785795 0.00213968 0.00159015 0.000785795 0.000128633 0.00159015 0.000890379 0.00213968 0.00159015 0.00315615 0.00256583 0.00159015 0.000890379 0.00256583 0.00181424 0.00382564 0.00357739 0.00509319 0.00482337 0.00357739 0.00315615 0.00482337 0.00436702 0.00509319 0.00482337 0.00658461 0.00628877 0.00482337 0.00436702 0.00628877 0.00579066 0.00315615 0.00256583 0.00436702 0.00372786 0.00256583 0.00181424 0.00372786 0.00291466 0.00436702 0.00372786 0.00579066 0.00509398 0.00372786 0.00291466 0.00509398 0.00420866 0.00630162 0.0056752 0.00814851 0.00723992 0.0056752 0.00660524 0.00723992 0.00836375 0.00814851 0.00723992 0.0102857 0.00905179 0.00723992 0.00836375 0.00905179 0.0104005 0.00660524 0.0066426 0.00836375 0.00838447 0.0066426 0.00658461 0.00838447 0.00832283 0.00836375 0.00838447 0.0104005 0.0104017 0.00838447 0.00832283 0.0104017 0.0103351 0.0102857 0.00905179 0.0127459 0.0111397 0.00905179 0.0104005 0.0111397 0.0127484 0.0127459 0.0111397 0.0155683 0.0135385 0.0111397 0.0127484 0.0135385 0.0154476 0.0104005 0.0104017 0.0127484 0.0127272 0.0104017 0.0103351 0.0127272 0.0126538 0.0127484 0.0127272 0.0154476 0.0154004 0.0127272 0.0126538 0.0154004 0.0153176 0.00658461 0.00628877 0.00832283 0.007996 0.00628877 0.00579066 0.007996 0.00744876 0.00832283 0.007996 0.0103351 0.00997151 0.007996 0.00744876 0.00997151 0.00936674 0.00579066 0.00509398 0.00744876 0.00668499 0.00509398 0.00420866 0.00668499 0.00571612 0.00744876 0.00668499 0.00936674 0.00852512 0.00668499 0.00571612 0.00852512 0.00746001 0.0103351 0.00997151 0.0126538 0.0122465 0.00997151 0.00936674 0.0122465 0.0115743 0.0126538 0.0122465 0.0153176 0.014858 0.0122465 0.0115743 0.014858 0.0141062 0.00936674 0.00852512 0.0115743 0.0106424 0.00852512 0.00746001 0.0106424 0.00946662 0.0115743 0.0106424 0.0141062 0.0130691 0.0106424 0.00946662 0.0130691 0.0117659 0.000128633 -0.000662021 0.000890379 4.82306e-05 -0.000662021 -0.00157734 4.82306e-05 -0.000927019 0.000890379 4.82306e-05 0.00181424 0.000909775 4.82306e-05 -0.000927019 0.000909775 -0.000137727 -0.00157734 -0.00260703 -0.000927019 -0.0020246 -0.00260703 -0.0037393 -0.0020246 -0.00323224 -0.000927019 -0.0020246 -0.000137727 -0.00131694 -0.0020246 -0.00323224 -0.00131694 -0.00261502 0.00181424 0.000909775 0.00291466 0.00193645 0.000909775 -0.000137727 0.00193645 0.000803772 0.00291466 0.00193645 0.00420866 0.00314458 0.00193645 0.000803772 0.00314458 0.00191307 -0.000137727 -0.00131694 0.000803772 -0.000471414 -0.00131694 -0.00261502 -0.000471414 -0.00187563 0.000803772 -0.000471414 0.00191307 0.000526874 -0.000471414 -0.00187563 0.000526874 -0.000999823 -0.0037393 -0.00496089 -0.00323224 -0.00453616 -0.00496089 -0.00625707 -0.00453616 -0.00592105 -0.00323224 -0.00453616 -0.00261502 -0.00401762 -0.00453616 -0.00592105 -0.00401762 -0.00550877 -0.00625707 -0.00761171 -0.00592105 -0.00737015 -0.00761171 -0.00900731 -0.00737015 -0.00886518 -0.00592105 -0.00737015 -0.00550877 -0.007071 -0.00737015 -0.00886518 -0.007071 -0.00868523 -0.00261502 -0.00401762 -0.00187563 -0.00339385 -0.00401762 -0.00550877 -0.00339385 -0.00500948 -0.00187563 -0.00339385 -0.000999823 -0.0026513 -0.00339385 -0.00500948 -0.0026513 -0.00441031 -0.00550877 -0.007071 -0.00500948 -0.00670429 -0.007071 -0.00868523 -0.00670429 -0.0084584 -0.00500948 -0.00670429 -0.00441031 -0.00625795 -0.00670429 -0.0084584 -0.00625795 -0.00817354 0.00420866 0.00314458 0.00571612 0.00455308 0.00314458 0.00191307 0.00455308 0.00320821 0.00571612 0.00455308 0.00746001 0.0061837 0.00455308 0.00320821 0.0061837 0.00470979 0.00191307 0.000526874 0.00320821 0.00169513 0.000526874 -0.000999823 0.00169513 2.88563e-05 0.00320821 0.00169513 0.00470979 0.00305299 0.00169513 2.88563e-05 0.00305299 0.0012292 0.00746001 0.0061837 0.00946662 0.00806112 0.0061837 0.00470979 0.00806112 0.00644108 0.00946662 0.00806112 0.0117659 0.0102131 0.00806112 0.00644108 0.0102131 0.00842792 0.00470979 0.00305299 0.00644108 0.00462249 0.00305299 0.0012292 0.00462249 0.00262232 0.00644108 0.00462249 0.00842792 0.00642798 0.00462249 0.00262232 0.00642798 0.00423144 -0.000999823 -0.0026513 2.88563e-05 -0.0017742 -0.0026513 -0.00441031 -0.0017742 -0.00369617 2.88563e-05 -0.0017742 0.0012292 -0.000744435 -0.0017742 -0.00369617 -0.000744435 -0.0028495 -0.00441031 -0.00625795 -0.00369617 -0.00571755 -0.00625795 -0.00817354 -0.00571755 -0.00781703 -0.00369617 -0.00571755 -0.0028495 -0.00506608 -0.00571755 -0.00781703 -0.00506608 -0.00737251 0.0012292 -0.000744435 0.00262232 0.000458426 -0.000744435 -0.0028495 0.000458426 -0.00185034 0.00262232 0.000458426 0.00423144 0.00185694 0.000458426 -0.00185034 0.00185694 -0.000676386 -0.0028495 -0.00506608 -0.00185034 -0.00428388 -0.00506608 -0.00737251 -0.00428388 -0.00682053 -0.00185034 -0.00428388 -0.000676386 -0.00334858 -0.00428388 -0.00682053 -0.00334858 -0.0061385 -0.0105608 -0.011962 -0.00864112 -0.00975402 -0.011962 -0.0133564 -0.00975402 -0.0108614 -0.00864112 -0.00975402 -0.00951172 -0.0107159 -0.00975402 -0.0108614 -0.0107159 -0.0119143 -0.0133564 -0.0147237 -0.0108614 -0.0119469 -0.0147237 -0.0160431 -0.0119469 -0.0129941 -0.0108614 -0.0119469 -0.0119143 -0.013089 -0.0119469 -0.0129941 -0.013089 -0.0142221 -0.00951172 -0.0107159 -0.00932286 -0.0105 -0.0107159 -0.0119143 -0.0105 -0.0116721 -0.00932286 -0.0105 -0.00932289 -0.0105163 -0.0105 -0.0116721 -0.0105163 -0.0117053 -0.0119143 -0.013089 -0.0116721 -0.0128215 -0.013089 -0.0142221 -0.0128215 -0.0139306 -0.0116721 -0.0128215 -0.0117053 -0.0128723 -0.0128215 -0.0139306 -0.0128723 -0.0139991 -0.0160431 -0.0172941 -0.0129941 -0.0139864 -0.0172941 -0.0184565 -0.0139864 -0.0149076 -0.0129941 -0.0139864 -0.0142221 -0.0152956 -0.0139864 -0.0149076 -0.0152956 -0.0162922 -0.0184565 -0.0195106 -0.0149076 -0.0157423 -0.0195106 -0.0204375 -0.0157423 -0.0164755 -0.0149076 -0.0157423 -0.0162922 -0.0171948 -0.0157423 -0.0164755 -0.0171948 -0.0179877 -0.0142221 -0.0152956 -0.0139306 -0.0149818 -0.0152956 -0.0162922 -0.0149818 -0.0159578 -0.0139306 -0.0149818 -0.0139991 -0.0150679 -0.0149818 -0.0159578 -0.0150679 -0.0160608 -0.0162922 -0.0171948 -0.0159578 -0.0168421 -0.0171948 -0.0179877 -0.0168421 -0.0176192 -0.0159578 -0.0168421 -0.0160608 -0.016961 -0.0168421 -0.0176192 -0.016961 -0.0177527 -0.00932289 -0.0105163 -0.00926993 -0.010492 -0.0105163 -0.0117053 -0.010492 -0.0117109 -0.00926993 -0.010492 -0.00920543 -0.0104745 -0.010492 -0.0117109 -0.0104745 -0.0117418 -0.0117053 -0.0128723 -0.0117109 -0.0129083 -0.0128723 -0.0139991 -0.0129083 -0.0140657 -0.0117109 -0.0129083 -0.0117418 -0.0129883 -0.0129083 -0.0140657 -0.0129883 -0.0141948 -0.00920543 -0.0104745 -0.00911879 -0.0104528 -0.0104745 -0.0117418 -0.0104528 -0.0117868 -0.00911879 -0.0104528 -0.00900731 -0.0104251 -0.0104528 -0.0117868 -0.0104251 -0.0118451 -0.0117418 -0.0129883 -0.0117868 -0.0131009 -0.0129883 -0.0141948 -0.0131009 -0.0143746 -0.0117868 -0.0131009 -0.0118451 -0.0132464 -0.0131009 -0.0143746 -0.0132464 -0.0146071 -0.0139991 -0.0150679 -0.0140657 -0.0151645 -0.0150679 -0.0160608 -0.0151645 -0.0161864 -0.0140657 -0.0151645 -0.0141948 -0.0153415 -0.0151645 -0.0161864 -0.0153415 -0.0164092 -0.0160608 -0.016961 -0.0161864 -0.0171136 -0.016961 -0.0177527 -0.0171136 -0.0179297 -0.0161864 -0.0171136 -0.0164092 -0.0173792 -0.0171136 -0.0179297 -0.0173792 -0.0182337 -0.0141948 -0.0153415 -0.0143746 -0.0155872 -0.0153415 -0.0164092 -0.0155872 -0.0167179 -0.0143746 -0.0155872 -0.0146071 -0.0159048 -0.0155872 -0.0167179 -0.0159048 -0.0171172 -0.0164092 -0.0173792 -0.0167179 -0.0177465 -0.0173792 -0.0182337 -0.0177465 -0.0186538 -0.0167179 -0.0177465 -0.0171172 -0.0182219 -0.0177465 -0.0186538 -0.0182219 -0.0191977 -0.0204375 -0.0212191 -0.0164755 -0.0170933 -0.0212191 -0.0218375 -0.0170933 -0.0175839 -0.0164755 -0.0170933 -0.0179877 -0.0186564 -0.0170933 -0.0175839 -0.0186564 -0.0191892 -0.0218375 -0.0222781 -0.0175839 -0.0179337 -0.0222781 -0.0225159 -0.0179337 -0.0181564 -0.0175839 -0.0179337 -0.0191892 -0.0195741 -0.0179337 -0.0181564 -0.0195741 -0.0198228 -0.0179877 -0.0186564 -0.0176192 -0.0182753 -0.0186564 -0.0191892 -0.0182753 -0.0187993 -0.0176192 -0.0182753 -0.0177527 -0.0184217 -0.0182753 -0.0187993 -0.0184217 -0.0189567 -0.0191892 -0.0195741 -0.0187993 -0.0191801 -0.0195741 -0.0198228 -0.0191801 -0.0194301 -0.0187993 -0.0191801 -0.0189567 -0.0193459 -0.0191801 -0.0194301 -0.0193459 -0.0196005 -0.0225159 -0.0225974 -0.0181564 -0.018155 -0.0225974 -0.0224634 -0.018155 -0.0184732 -0.0181564 -0.018155 -0.0198228 -0.0198539 -0.018155 -0.0184732 -0.0198539 -0.0201611 -0.0224634 -0.0211583 -0.0184732 -0.0165411 -0.0211583 -0.0230747 -0.0165411 -0.0209159 -0.0184732 -0.0165411 -0.0201611 -0.0182472 -0.0165411 -0.0209159 -0.0182472 -0.0217483 -0.0198228 -0.0198539 -0.0194301 -0.0194613 -0.0198539 -0.0201611 -0.0194613 -0.0197808 -0.0194301 -0.0194613 -0.0196005 -0.0196309 -0.0194613 -0.0197808 -0.0196309 -0.0199344 -0.0201611 -0.0182472 -0.0197808 -0.0178193 -0.0182472 -0.0217483 -0.0178193 -0.0215958 -0.0197808 -0.0178193 -0.0199344 -0.0179436 -0.0178193 -0.0215958 -0.0179436 -0.02157 -0.0177527 -0.0184217 -0.0179297 -0.0186198 -0.0184217 -0.0189567 -0.0186198 -0.0191718 -0.0179297 -0.0186198 -0.0182337 -0.0189567 -0.0186198 -0.0191718 -0.0189567 -0.0195349 -0.0189567 -0.0193459 -0.0191718 -0.0195729 -0.0193459 -0.0196005 -0.0195729 -0.0198332 -0.0191718 -0.0195729 -0.0195349 -0.0199544 -0.0195729 -0.0198332 -0.0199544 -0.0202242 -0.0182337 -0.0189567 -0.0186538 -0.019422 -0.0189567 -0.0195349 -0.019422 -0.0200364 -0.0186538 -0.019422 -0.0191977 -0.0200249 -0.019422 -0.0200364 -0.0200249 -0.0206868 -0.0195349 -0.0199544 -0.0200364 -0.0204815 -0.0199544 -0.0202242 -0.0204815 -0.0207657 -0.0200364 -0.0204815 -0.0206868 -0.0211662 -0.0204815 -0.0207657 -0.0211662 -0.0214708 -0.0196005 -0.0196309 -0.0198332 -0.0198597 -0.0196309 -0.0199344 -0.0198597 -0.0201535 -0.0198332 -0.0198597 -0.0202242 -0.0202484 -0.0198597 -0.0201535 -0.0202484 -0.0205367 -0.0199344 -0.0179436 -0.0201535 -0.0181158 -0.0179436 -0.02157 -0.0181158 -0.0217686 -0.0201535 -0.0181158 -0.0205367 -0.0184458 -0.0181158 -0.0217686 -0.0184458 -0.0221388 -0.0202242 -0.0202484 -0.0207657 -0.0207902 -0.0202484 -0.0205367 -0.0207902 -0.0210779 -0.0207657 -0.0207902 -0.0214708 -0.0214983 -0.0207902 -0.0210779 -0.0214983 -0.0217896 -0.0205367 -0.0184458 -0.0210779 -0.0189195 -0.0184458 -0.0221388 -0.0189195 -0.0226904 -0.0210779 -0.0189195 -0.0217896 -0.0195474 -0.0189195 -0.0226904 -0.0195474 -0.0234249 -0.00900731 -0.0104251 -0.00886518 -0.0103865 -0.0104251 -0.0118451 -0.0103865 -0.0119129 -0.00886518 -0.0103865 -0.00868523 -0.0103308 -0.0103865 -0.0119129 -0.0103308 -0.0119853 -0.0118451 -0.0132464 -0.0119129 -0.0134222 -0.0132464 -0.0146071 -0.0134222 -0.0148909 -0.0119129 -0.0134222 -0.0119853 -0.013625 -0.0134222 -0.0148909 -0.013625 -0.0152247 -0.00868523 -0.0103308 -0.0084584 -0.0102501 -0.0103308 -0.0119853 -0.0102501 -0.0120558 -0.0084584 -0.0102501 -0.00817354 -0.0101344 -0.0102501 -0.0120558 -0.0101344 -0.0121158 -0.0119853 -0.013625 -0.0120558 -0.0138501 -0.013625 -0.0152247 -0.0138501 -0.0156056 -0.0120558 -0.0138501 -0.0121158 -0.0140906 -0.0138501 -0.0156056 -0.0140906 -0.0160293 -0.0146071 -0.0159048 -0.0148909 -0.0162948 -0.0159048 -0.0171172 -0.0162948 -0.0176091 -0.0148909 -0.0162948 -0.0152247 -0.0167577 -0.0162948 -0.0176091 -0.0167577 -0.0181967 -0.0171172 -0.0182219 -0.0176091 -0.0188093 -0.0182219 -0.0191977 -0.0188093 -0.0198716 -0.0176091 -0.0188093 -0.0181967 -0.0195143 -0.0188093 -0.0198716 -0.0195143 -0.0206833 -0.0152247 -0.0167577 -0.0156056 -0.0172932 -0.0167577 -0.0181967 -0.0172932 -0.0188825 -0.0156056 -0.0172932 -0.0160293 -0.0178998 -0.0172932 -0.0188825 -0.0178998 -0.0196683 -0.0181967 -0.0195143 -0.0188825 -0.0203423 -0.0195143 -0.0206833 -0.0203423 -0.0216415 -0.0188825 -0.0203423 -0.0196683 -0.021299 -0.0203423 -0.0216415 -0.021299 -0.0227558 -0.00817354 -0.0101344 -0.00781703 -0.0099712 -0.0101344 -0.0121158 -0.0099712 -0.0121542 -0.00781703 -0.0099712 -0.00737251 -0.00974489 -0.0099712 -0.0121542 -0.00974489 -0.0121567 -0.0121158 -0.0140906 -0.0121542 -0.0143374 -0.0140906 -0.0160293 -0.0143374 -0.0164891 -0.0121542 -0.0143374 -0.0121567 -0.0145779 -0.0143374 -0.0164891 -0.0145779 -0.0169749 -0.00737251 -0.00974489 -0.00682053 -0.00943644 -0.00974489 -0.0121567 -0.00943644 -0.0121049 -0.00682053 -0.00943644 -0.0061385 -0.00902299 -0.00943644 -0.0121049 -0.00902299 -0.011976 -0.0121567 -0.0145779 -0.0121049 -0.0147953 -0.0145779 -0.0169749 -0.0147953 -0.0174724 -0.0121049 -0.0147953 -0.011976 -0.0149673 -0.0147953 -0.0174724 -0.0149673 -0.017961 -0.0160293 -0.0178998 -0.0164891 -0.0185741 -0.0178998 -0.0196683 -0.0185741 -0.0205545 -0.0164891 -0.0185741 -0.0169749 -0.0193095 -0.0185741 -0.0205545 -0.0193095 -0.0215391 -0.0196683 -0.021299 -0.0205545 -0.0223893 -0.021299 -0.0227558 -0.0223893 -0.0240363 -0.0205545 -0.0223893 -0.0215391 -0.0236168 -0.0223893