# vtk DataFile Version 3.0
#This file was generated by the deal.II library on 2026/1/5 at 14:19:38
ASCII
DATASET UNSTRUCTURED_GRID

POINTS 4096 double
0 0 0
0.03125 0 0
0 0.03125 0
0.03125 0.03125 0
0.03125 0 0
0.0625 0 0
0.03125 0.03125 0
0.0625 0.03125 0
0 0.03125 0
0.03125 0.03125 0
0 0.0625 0
0.03125 0.0625 0
0.03125 0.03125 0
0.0625 0.03125 0
0.03125 0.0625 0
0.0625 0.0625 0
0.0625 0 0
0.09375 0 0
0.0625 0.03125 0
0.09375 0.03125 0
0.09375 0 0
0.125 0 0
0.09375 0.03125 0
0.125 0.03125 0
0.0625 0.03125 0
0.09375 0.03125 0
0.0625 0.0625 0
0.09375 0.0625 0
0.09375 0.03125 0
0.125 0.03125 0
0.09375 0.0625 0
0.125 0.0625 0
0 0.0625 0
0.03125 0.0625 0
0 0.09375 0
0.03125 0.09375 0
0.03125 0.0625 0
0.0625 0.0625 0
0.03125 0.09375 0
0.0625 0.09375 0
0 0.09375 0
0.03125 0.09375 0
0 0.125 0
0.03125 0.125 0
0.03125 0.09375 0
0.0625 0.09375 0
0.03125 0.125 0
0.0625 0.125 0
0.0625 0.0625 0
0.09375 0.0625 0
0.0625 0.09375 0
0.09375 0.09375 0
0.09375 0.0625 0
0.125 0.0625 0
0.09375 0.09375 0
0.125 0.09375 0
0.0625 0.09375 0
0.09375 0.09375 0
0.0625 0.125 0
0.09375 0.125 0
0.09375 0.09375 0
0.125 0.09375 0
0.09375 0.125 0
0.125 0.125 0
0.125 0 0
0.15625 0 0
0.125 0.03125 0
0.15625 0.03125 0
0.15625 0 0
0.1875 0 0
0.15625 0.03125 0
0.1875 0.03125 0
0.125 0.03125 0
0.15625 0.03125 0
0.125 0.0625 0
0.15625 0.0625 0
0.15625 0.03125 0
0.1875 0.03125 0
0.15625 0.0625 0
0.1875 0.0625 0
0.1875 0 0
0.21875 0 0
0.1875 0.03125 0
0.21875 0.03125 0
0.21875 0 0
0.25 0 0
0.21875 0.03125 0
0.25 0.03125 0
0.1875 0.03125 0
0.21875 0.03125 0
0.1875 0.0625 0
0.21875 0.0625 0
0.21875 0.03125 0
0.25 0.03125 0
0.21875 0.0625 0
0.25 0.0625 0
0.125 0.0625 0
0.15625 0.0625 0
0.125 0.09375 0
0.15625 0.09375 0
0.15625 0.0625 0
0.1875 0.0625 0
0.15625 0.09375 0
0.1875 0.09375 0
0.125 0.09375 0
0.15625 0.09375 0
0.125 0.125 0
0.15625 0.125 0
0.15625 0.09375 0
0.1875 0.09375 0
0.15625 0.125 0
0.1875 0.125 0
0.1875 0.0625 0
0.21875 0.0625 0
0.1875 0.09375 0
0.21875 0.09375 0
0.21875 0.0625 0
0.25 0.0625 0
0.21875 0.09375 0
0.25 0.09375 0
0.1875 0.09375 0
0.21875 0.09375 0
0.1875 0.125 0
0.21875 0.125 0
0.21875 0.09375 0
0.25 0.09375 0
0.21875 0.125 0
0.25 0.125 0
0 0.125 0
0.03125 0.125 0
0 0.15625 0
0.03125 0.15625 0
0.03125 0.125 0
0.0625 0.125 0
0.03125 0.15625 0
0.0625 0.15625 0
0 0.15625 0
0.03125 0.15625 0
0 0.1875 0
0.03125 0.1875 0
0.03125 0.15625 0
0.0625 0.15625 0
0.03125 0.1875 0
0.0625 0.1875 0
0.0625 0.125 0
0.09375 0.125 0
0.0625 0.15625 0
0.09375 0.15625 0
0.09375 0.125 0
0.125 0.125 0
0.09375 0.15625 0
0.125 0.15625 0
0.0625 0.15625 0
0.09375 0.15625 0
0.0625 0.1875 0
0.09375 0.1875 0
0.09375 0.15625 0
0.125 0.15625 0
0.09375 0.1875 0
0.125 0.1875 0
0 0.1875 0
0.03125 0.1875 0
0 0.21875 0
0.03125 0.21875 0
0.03125 0.1875 0
0.0625 0.1875 0
0.03125 0.21875 0
0.0625 0.21875 0
0 0.21875 0
0.03125 0.21875 0
0 0.25 0
0.03125 0.25 0
0.03125 0.21875 0
0.0625 0.21875 0
0.03125 0.25 0
0.0625 0.25 0
0.0625 0.1875 0
0.09375 0.1875 0
0.0625 0.21875 0
0.09375 0.21875 0
0.09375 0.1875 0
0.125 0.1875 0
0.09375 0.21875 0
0.125 0.21875 0
0.0625 0.21875 0
0.09375 0.21875 0
0.0625 0.25 0
0.09375 0.25 0
0.09375 0.21875 0
0.125 0.21875 0
0.09375 0.25 0
0.125 0.25 0
0.125 0.125 0
0.15625 0.125 0
0.125 0.15625 0
0.15625 0.15625 0
0.15625 0.125 0
0.1875 0.125 0
0.15625 0.15625 0
0.1875 0.15625 0
0.125 0.15625 0
0.15625 0.15625 0
0.125 0.1875 0
0.15625 0.1875 0
0.15625 0.15625 0
0.1875 0.15625 0
0.15625 0.1875 0
0.1875 0.1875 0
0.1875 0.125 0
0.21875 0.125 0
0.1875 0.15625 0
0.21875 0.15625 0
0.21875 0.125 0
0.25 0.125 0
0.21875 0.15625 0
0.25 0.15625 0
0.1875 0.15625 0
0.21875 0.15625 0
0.1875 0.1875 0
0.21875 0.1875 0
0.21875 0.15625 0
0.25 0.15625 0
0.21875 0.1875 0
0.25 0.1875 0
0.125 0.1875 0
0.15625 0.1875 0
0.125 0.21875 0
0.15625 0.21875 0
0.15625 0.1875 0
0.1875 0.1875 0
0.15625 0.21875 0
0.1875 0.21875 0
0.125 0.21875 0
0.15625 0.21875 0
0.125 0.25 0
0.15625 0.25 0
0.15625 0.21875 0
0.1875 0.21875 0
0.15625 0.25 0
0.1875 0.25 0
0.1875 0.1875 0
0.21875 0.1875 0
0.1875 0.21875 0
0.21875 0.21875 0
0.21875 0.1875 0
0.25 0.1875 0
0.21875 0.21875 0
0.25 0.21875 0
0.1875 0.21875 0
0.21875 0.21875 0
0.1875 0.25 0
0.21875 0.25 0
0.21875 0.21875 0
0.25 0.21875 0
0.21875 0.25 0
0.25 0.25 0
0.25 0 0
0.28125 0 0
0.25 0.03125 0
0.28125 0.03125 0
0.28125 0 0
0.3125 0 0
0.28125 0.03125 0
0.3125 0.03125 0
0.25 0.03125 0
0.28125 0.03125 0
0.25 0.0625 0
0.28125 0.0625 0
0.28125 0.03125 0
0.3125 0.03125 0
0.28125 0.0625 0
0.3125 0.0625 0
0.3125 0 0
0.34375 0 0
0.3125 0.03125 0
0.34375 0.03125 0
0.34375 0 0
0.375 0 0
0.34375 0.03125 0
0.375 0.03125 0
0.3125 0.03125 0
0.34375 0.03125 0
0.3125 0.0625 0
0.34375 0.0625 0
0.34375 0.03125 0
0.375 0.03125 0
0.34375 0.0625 0
0.375 0.0625 0
0.25 0.0625 0
0.28125 0.0625 0
0.25 0.09375 0
0.28125 0.09375 0
0.28125 0.0625 0
0.3125 0.0625 0
0.28125 0.09375 0
0.3125 0.09375 0
0.25 0.09375 0
0.28125 0.09375 0
0.25 0.125 0
0.28125 0.125 0
0.28125 0.09375 0
0.3125 0.09375 0
0.28125 0.125 0
0.3125 0.125 0
0.3125 0.0625 0
0.34375 0.0625 0
0.3125 0.09375 0
0.34375 0.09375 0
0.34375 0.0625 0
0.375 0.0625 0
0.34375 0.09375 0
0.375 0.09375 0
0.3125 0.09375 0
0.34375 0.09375 0
0.3125 0.125 0
0.34375 0.125 0
0.34375 0.09375 0
0.375 0.09375 0
0.34375 0.125 0
0.375 0.125 0
0.375 0 0
0.40625 0 0
0.375 0.03125 0
0.40625 0.03125 0
0.40625 0 0
0.4375 0 0
0.40625 0.03125 0
0.4375 0.03125 0
0.375 0.03125 0
0.40625 0.03125 0
0.375 0.0625 0
0.40625 0.0625 0
0.40625 0.03125 0
0.4375 0.03125 0
0.40625 0.0625 0
0.4375 0.0625 0
0.4375 0 0
0.46875 0 0
0.4375 0.03125 0
0.46875 0.03125 0
0.46875 0 0
0.5 0 0
0.46875 0.03125 0
0.5 0.03125 0
0.4375 0.03125 0
0.46875 0.03125 0
0.4375 0.0625 0
0.46875 0.0625 0
0.46875 0.03125 0
0.5 0.03125 0
0.46875 0.0625 0
0.5 0.0625 0
0.375 0.0625 0
0.40625 0.0625 0
0.375 0.09375 0
0.40625 0.09375 0
0.40625 0.0625 0
0.4375 0.0625 0
0.40625 0.09375 0
0.4375 0.09375 0
0.375 0.09375 0
0.40625 0.09375 0
0.375 0.125 0
0.40625 0.125 0
0.40625 0.09375 0
0.4375 0.09375 0
0.40625 0.125 0
0.4375 0.125 0
0.4375 0.0625 0
0.46875 0.0625 0
0.4375 0.09375 0
0.46875 0.09375 0
0.46875 0.0625 0
0.5 0.0625 0
0.46875 0.09375 0
0.5 0.09375 0
0.4375 0.09375 0
0.46875 0.09375 0
0.4375 0.125 0
0.46875 0.125 0
0.46875 0.09375 0
0.5 0.09375 0
0.46875 0.125 0
0.5 0.125 0
0.25 0.125 0
0.28125 0.125 0
0.25 0.15625 0
0.28125 0.15625 0
0.28125 0.125 0
0.3125 0.125 0
0.28125 0.15625 0
0.3125 0.15625 0
0.25 0.15625 0
0.28125 0.15625 0
0.25 0.1875 0
0.28125 0.1875 0
0.28125 0.15625 0
0.3125 0.15625 0
0.28125 0.1875 0
0.3125 0.1875 0
0.3125 0.125 0
0.34375 0.125 0
0.3125 0.15625 0
0.34375 0.15625 0
0.34375 0.125 0
0.375 0.125 0
0.34375 0.15625 0
0.375 0.15625 0
0.3125 0.15625 0
0.34375 0.15625 0
0.3125 0.1875 0
0.34375 0.1875 0
0.34375 0.15625 0
0.375 0.15625 0
0.34375 0.1875 0
0.375 0.1875 0
0.25 0.1875 0
0.28125 0.1875 0
0.25 0.21875 0
0.28125 0.21875 0
0.28125 0.1875 0
0.3125 0.1875 0
0.28125 0.21875 0
0.3125 0.21875 0
0.25 0.21875 0
0.28125 0.21875 0
0.25 0.25 0
0.28125 0.25 0
0.28125 0.21875 0
0.3125 0.21875 0
0.28125 0.25 0
0.3125 0.25 0
0.3125 0.1875 0
0.34375 0.1875 0
0.3125 0.21875 0
0.34375 0.21875 0
0.34375 0.1875 0
0.375 0.1875 0
0.34375 0.21875 0
0.375 0.21875 0
0.3125 0.21875 0
0.34375 0.21875 0
0.3125 0.25 0
0.34375 0.25 0
0.34375 0.21875 0
0.375 0.21875 0
0.34375 0.25 0
0.375 0.25 0
0.375 0.125 0
0.40625 0.125 0
0.375 0.15625 0
0.40625 0.15625 0
0.40625 0.125 0
0.4375 0.125 0
0.40625 0.15625 0
0.4375 0.15625 0
0.375 0.15625 0
0.40625 0.15625 0
0.375 0.1875 0
0.40625 0.1875 0
0.40625 0.15625 0
0.4375 0.15625 0
0.40625 0.1875 0
0.4375 0.1875 0
0.4375 0.125 0
0.46875 0.125 0
0.4375 0.15625 0
0.46875 0.15625 0
0.46875 0.125 0
0.5 0.125 0
0.46875 0.15625 0
0.5 0.15625 0
0.4375 0.15625 0
0.46875 0.15625 0
0.4375 0.1875 0
0.46875 0.1875 0
0.46875 0.15625 0
0.5 0.15625 0
0.46875 0.1875 0
0.5 0.1875 0
0.375 0.1875 0
0.40625 0.1875 0
0.375 0.21875 0
0.40625 0.21875 0
0.40625 0.1875 0
0.4375 0.1875 0
0.40625 0.21875 0
0.4375 0.21875 0
0.375 0.21875 0
0.40625 0.21875 0
0.375 0.25 0
0.40625 0.25 0
0.40625 0.21875 0
0.4375 0.21875 0
0.40625 0.25 0
0.4375 0.25 0
0.4375 0.1875 0
0.46875 0.1875 0
0.4375 0.21875 0
0.46875 0.21875 0
0.46875 0.1875 0
0.5 0.1875 0
0.46875 0.21875 0
0.5 0.21875 0
0.4375 0.21875 0
0.46875 0.21875 0
0.4375 0.25 0
0.46875 0.25 0
0.46875 0.21875 0
0.5 0.21875 0
0.46875 0.25 0
0.5 0.25 0
0 0.25 0
0.03125 0.25 0
0 0.28125 0
0.03125 0.28125 0
0.03125 0.25 0
0.0625 0.25 0
0.03125 0.28125 0
0.0625 0.28125 0
0 0.28125 0
0.03125 0.28125 0
0 0.3125 0
0.03125 0.3125 0
0.03125 0.28125 0
0.0625 0.28125 0
0.03125 0.3125 0
0.0625 0.3125 0
0.0625 0.25 0
0.09375 0.25 0
0.0625 0.28125 0
0.09375 0.28125 0
0.09375 0.25 0
0.125 0.25 0
0.09375 0.28125 0
0.125 0.28125 0
0.0625 0.28125 0
0.09375 0.28125 0
0.0625 0.3125 0
0.09375 0.3125 0
0.09375 0.28125 0
0.125 0.28125 0
0.09375 0.3125 0
0.125 0.3125 0
0 0.3125 0
0.03125 0.3125 0
0 0.34375 0
0.03125 0.34375 0
0.03125 0.3125 0
0.0625 0.3125 0
0.03125 0.34375 0
0.0625 0.34375 0
0 0.34375 0
0.03125 0.34375 0
0 0.375 0
0.03125 0.375 0
0.03125 0.34375 0
0.0625 0.34375 0
0.03125 0.375 0
0.0625 0.375 0
0.0625 0.3125 0
0.09375 0.3125 0
0.0625 0.34375 0
0.09375 0.34375 0
0.09375 0.3125 0
0.125 0.3125 0
0.09375 0.34375 0
0.125 0.34375 0
0.0625 0.34375 0
0.09375 0.34375 0
0.0625 0.375 0
0.09375 0.375 0
0.09375 0.34375 0
0.125 0.34375 0
0.09375 0.375 0
0.125 0.375 0
0.125 0.25 0
0.15625 0.25 0
0.125 0.28125 0
0.15625 0.28125 0
0.15625 0.25 0
0.1875 0.25 0
0.15625 0.28125 0
0.1875 0.28125 0
0.125 0.28125 0
0.15625 0.28125 0
0.125 0.3125 0
0.15625 0.3125 0
0.15625 0.28125 0
0.1875 0.28125 0
0.15625 0.3125 0
0.1875 0.3125 0
0.1875 0.25 0
0.21875 0.25 0
0.1875 0.28125 0
0.21875 0.28125 0
0.21875 0.25 0
0.25 0.25 0
0.21875 0.28125 0
0.25 0.28125 0
0.1875 0.28125 0
0.21875 0.28125 0
0.1875 0.3125 0
0.21875 0.3125 0
0.21875 0.28125 0
0.25 0.28125 0
0.21875 0.3125 0
0.25 0.3125 0
0.125 0.3125 0
0.15625 0.3125 0
0.125 0.34375 0
0.15625 0.34375 0
0.15625 0.3125 0
0.1875 0.3125 0
0.15625 0.34375 0
0.1875 0.34375 0
0.125 0.34375 0
[...]
POINT_DATA 4096
SCALARS p double 1
LOOKUP_TABLE default
9.97536e-07 8.50138e-05 -7.51535e-05 -2.00219e-06 8.50138e-05 0.000332859 -2.00219e-06 0.000136258 -7.51535e-05 -2.00219e-06 -0.000320192 -0.00013421 -2.00219e-06 0.000136258 -0.00013421 5.85365e-06 0.000332859 0.000608805 0.000136258 0.000291024 0.000608805 0.000816253 0.000291024 0.000401955 0.000136258 0.000291024 5.85365e-06 0.000151586 0.000291024 0.000401955 0.000151586 0.000240549 -0.000320192 -0.00013421 -0.000603262 -0.000287875 -0.00013421 5.85365e-06 -0.000287875 -0.000130818 -0.000603262 -0.000287875 -0.000829159 -0.000400348 -0.000287875 -0.000130818 -0.000400348 -0.000208958 5.85365e-06 0.000151586 -0.000130818 1.96992e-05 0.000151586 0.000240549 1.96992e-05 9.60209e-05 -0.000130818 1.96992e-05 -0.000208958 -3.37606e-05 1.96992e-05 9.60209e-05 -3.37606e-05 4.85045e-05 0.000816253 0.000908095 0.000401955 0.0004387 0.000908095 0.000865943 0.0004387 0.000384441 0.000401955 0.0004387 0.000240549 0.000255365 0.0004387 0.000384441 0.000255365 0.000180635 0.000865943 0.00068585 0.000384441 0.000232803 0.00068585 0.000371413 0.000232803 -1.65803e-05 0.000384441 0.000232803 0.000180635 9.71288e-06 0.000232803 -1.65803e-05 9.71288e-06 -0.000259053 0.000240549 0.000255365 9.60209e-05 9.81965e-05 0.000255365 0.000180635 9.81965e-05 1.62738e-05 9.60209e-05 9.81965e-05 4.85045e-05 5.04058e-05 9.81965e-05 1.62738e-05 5.04058e-05 -3.32314e-05 0.000180635 9.71288e-06 1.62738e-05 -0.000153737 9.71288e-06 -0.000259053 -0.000153737 -0.000413175 1.62738e-05 -0.000153737 -3.32314e-05 -0.000203374 -0.000153737 -0.000413175 -0.000203374 -0.000460199 -0.000829159 -0.000400348 -0.000946914 -0.000436172 -0.000400348 -0.000208958 -0.000436172 -0.000203975 -0.000946914 -0.000436172 -0.000930193 -0.000371555 -0.000436172 -0.000203975 -0.000371555 -9.19512e-05 -0.000208958 -3.37606e-05 -0.000203975 -2.65381e-07 -3.37606e-05 4.85045e-05 -2.65381e-07 9.56705e-05 -0.000203975 -2.65381e-07 -9.19512e-05 0.000139643 -2.65381e-07 9.56705e-05 0.000139643 0.000253171 -0.000930193 -0.000371555 -0.000763729 -0.000190704 -0.000371555 -9.19512e-05 -0.000190704 0.000144648 -0.000763729 -0.000190704 -0.00043724 0.000118269 -0.000190704 0.000144648 0.000118269 0.000520373 -9.19512e-05 0.000139643 0.000144648 0.000401357 0.000139643 0.000253171 0.000401357 0.000533928 0.000144648 0.000401357 0.000520373 0.000799102 0.000401357 0.000533928 0.000799102 0.000951266 4.85045e-05 5.04058e-05 9.56705e-05 0.000103867 5.04058e-05 -3.32314e-05 0.000103867 2.30979e-05 9.56705e-05 0.000103867 0.000253171 0.000271148 0.000103867 2.30979e-05 0.000271148 0.000195505 -3.32314e-05 -0.000203374 2.30979e-05 -0.000144905 -0.000203374 -0.000460199 -0.000144905 -0.000398986 2.30979e-05 -0.000144905 0.000195505 3.00307e-05 -0.000144905 -0.000398986 3.00307e-05 -0.000222917 0.000253171 0.000271148 0.000533928 0.000562898 0.000271148 0.000195505 0.000562898 0.000493038 0.000533928 0.000562898 0.000951266 0.000991259 0.000562898 0.000493038 0.000991259 0.000926801 0.000195505 3.00307e-05 0.000493038 0.000329529 3.00307e-05 -0.000222917 0.000329529 7.57169e-05 0.000493038 0.000329529 0.000926801 0.000763959 0.000329529 7.57169e-05 0.000763959 0.00050685 0.000371413 -7.01167e-05 -1.65803e-05 -0.000360532 -7.01167e-05 -0.000629811 -0.000360532 -0.000793935 -1.65803e-05 -0.000360532 -0.000259053 -0.000623807 -0.000360532 -0.000793935 -0.000623807 -0.0010805 -0.000629811 -0.00129793 -0.000793935 -0.00131028 -0.00129793 -0.00206403 -0.00131028 -0.00190199 -0.000793935 -0.00131028 -0.0010805 -0.00162326 -0.00131028 -0.00190199 -0.00162326 -0.00224477 -0.000259053 -0.000623807 -0.000413175 -0.000760811 -0.000623807 -0.0010805 -0.000760811 -0.00119368 -0.000413175 -0.000760811 -0.000460199 -0.000802327 -0.000760811 -0.00119368 -0.000802327 -0.00122719 -0.0010805 -0.00162326 -0.00119368 -0.00170706 -0.00162326 -0.00224477 -0.00170706 -0.00229479 -0.00119368 -0.00170706 -0.00122719 -0.00173076 -0.00170706 -0.00229479 -0.00173076 -0.00230772 -0.00206403 -0.00291665 -0.00190199 -0.00256039 -0.00291665 -0.00384303 -0.00256039 -0.00327554 -0.00190199 -0.00256039 -0.00224477 -0.00293635 -0.00256039 -0.00327554 -0.00293635 -0.00368771 -0.00384303 -0.00482876 -0.00327554 -0.00403601 -0.00482876 -0.00585743 -0.00403601 -0.00482886 -0.00327554 -0.00403601 -0.00368771 -0.00448684 -0.00403601 -0.00482886 -0.00448684 -0.00532005 -0.00224477 -0.00293635 -0.00229479 -0.00294928 -0.00293635 -0.00368771 -0.00294928 -0.0036612 -0.00229479 -0.00294928 -0.00230772 -0.0029512 -0.00294928 -0.0036612 -0.0029512 -0.00365257 -0.00368771 -0.00448684 -0.0036612 -0.00441937 -0.00448684 -0.00532005 -0.00441937 -0.00521095 -0.0036612 -0.00441937 -0.00365257 -0.00440124 -0.00441937 -0.00521095 -0.00440124 -0.00518478 -0.000460199 -0.000802327 -0.000398986 -0.00073735 -0.000802327 -0.00122719 -0.00073735 -0.00115755 -0.000398986 -0.00073735 -0.000222917 -0.000561102 -0.00073735 -0.00115755 -0.000561102 -0.000982131 -0.00122719 -0.00173076 -0.00115755 -0.00165615 -0.00173076 -0.00230772 -0.00165615 -0.00222851 -0.00115755 -0.00165615 -0.000982131 -0.00148304 -0.00165615 -0.00222851 -0.00148304 -0.0020598 -0.000222917 -0.000561102 7.57169e-05 -0.00026582 -0.000561102 -0.000982131 -0.00026582 -0.000692809 7.57169e-05 -0.00026582 0.00050685 0.000158248 -0.00026582 -0.000692809 0.000158248 -0.000279793 -0.000982131 -0.00148304 -0.000692809 -0.00120269 -0.00148304 -0.0020598 -0.00120269 -0.001792 -0.000692809 -0.00120269 -0.000279793 -0.000805147 -0.00120269 -0.001792 -0.000805147 -0.00141499 -0.00230772 -0.0029512 -0.00222851 -0.00286847 -0.0029512 -0.00365257 -0.00286847 -0.00356805 -0.00222851 -0.00286847 -0.0020598 -0.00270681 -0.00286847 -0.00356805 -0.00270681 -0.00341676 -0.00365257 -0.00440124 -0.00356805 -0.00431727 -0.00440124 -0.00518478 -0.00431727 -0.00510406 -0.00356805 -0.00431727 -0.00341676 -0.00418019 -0.00431727 -0.00510406 -0.00418019 -0.00498526 -0.0020598 -0.00270681 -0.001792 -0.00245584 -0.00270681 -0.00341676 -0.00245584 -0.00318749 -0.001792 -0.00245584 -0.00141499 -0.00210513 -0.00245584 -0.00318749 -0.00210513 -0.00286954 -0.00341676 -0.00418019 -0.00318749 -0.00397794 -0.00418019 -0.00498526 -0.00397794 -0.00481559 -0.00318749 -0.00397794 -0.00286954 -0.00369975 -0.00397794 -0.00481559 -0.00369975 -0.00458437 -0.00043724 0.000118269 5.80772e-05 0.000565646 0.000118269 0.000520373 0.000565646 0.00104829 5.80772e-05 0.000565646 0.000731594 0.00116157 0.000565646 0.00104829 0.00116157 0.00174132 0.000520373 0.000799102 0.00104829 0.00134641 0.000799102 0.000951266 0.00134641 0.00151857 0.00104829 0.00134641 0.00174132 0.00205697 0.00134641 0.00151857 0.00205697 0.00224992 0.000731594 0.00116157 0.00159448 0.00191732 0.00116157 0.00174132 0.00191732 0.00261347 0.00159448 0.00191732 0.00266048 0.00284603 0.00191732 0.00261347 0.00284603 0.00368061 0.00174132 0.00205697 0.00261347 0.00294565 0.00205697 0.00224992 0.00294565 0.00316075 0.00261347 0.00294565 0.00368061 0.00402906 0.00294565 0.00316075 0.00402906 0.00426827 0.000951266 0.000991259 0.00151857 0.00156914 0.000991259 0.000926801 0.00156914 0.00150917 0.00151857 0.00156914 0.00224992 0.00231064 0.00156914 0.00150917 0.00231064 0.00225417 0.000926801 0.000763959 0.00150917 0.00134533 0.000763959 0.00050685 0.00134533 0.00108236 0.00150917 0.00134533 0.00225417 0.00208769 0.00134533 0.00108236 0.00208769 0.0018165 0.00224992 0.00231064 0.00316075 0.00323141 0.00231064 0.00225417 0.00323141 0.00317766 0.00316075 0.00323141 0.00426827 0.00434911 0.00323141 0.00317766 0.00434911 0.00429773 0.00225417 0.00208769 0.00317766 0.00300722 0.00208769 0.0018165 0.00300722 0.00272599 0.00317766 0.00300722 0.00429773 0.00412255 0.00300722 0.00272599 0.00412255 0.00383025 0.00266048 0.00284603 0.00394648 0.00396318 0.00284603 0.00368061 0.00396318 0.00496115 0.00394648 0.00396318 0.00547295 0.00528733 0.00396318 0.00496115 0.00528733 0.00647687 0.00368061 0.00402906 0.00496115 0.00532629 0.00402906 0.00426827 0.00532629 0.00559227 0.00496115 0.00532629 0.00647687 0.0068596 0.00532629 0.00559227 0.0068596 0.00715548 0.00547295 0.00528733 0.00726446 0.00684079 0.00528733 0.00647687 0.00684079 0.00825376 0.00726446 0.00684079 0.00935067 0.00865046 0.00684079 0.00825376 0.00865046 0.010323 0.00647687 0.0068596 0.00825376 0.00865532 0.0068596 0.00715548 0.00865532 0.00898447 0.00825376 0.00865532 0.010323 0.0107447 0.00865532 0.00898447 0.0107447 0.0111102 0.00426827 0.00434911 0.00559227 0.00568394 0.00434911 0.00429773 0.00568394 0.00563508 0.00559227 0.00568394 0.00715548 0.00725893 0.00568394 0.00563508 0.00725893 0.00721306 0.00429773 0.00412255 0.00563508 0.00545503 0.00412255 0.00383025 0.00545503 0.0051516 0.00563508 0.00545503 0.00721306 0.00702862 0.00545503 0.0051516 0.00702862 0.00671495 0.00715548 0.00725893 0.00898447 0.00910054 0.00725893 0.00721306 0.00910054 0.00905812 0.00898447 0.00910054 0.0111102 0.011239 0.00910054 0.00905812 0.011239 0.0111998 0.00721306 0.00702862 0.00905812 0.00887004 0.00702862 0.00671495 0.00887004 0.00854781 0.00905812 0.00887004 0.0111998 0.0110086 0.00887004 0.00854781 0.0110086 0.0106796 0.00050685 0.000158248 0.00108236 0.000723101 0.000158248 -0.000279793 0.000723101 0.000269311 0.00108236 0.000723101 0.0018165 0.00144344 0.000723101 0.000269311 0.00144344 0.000969879 -0.000279793 -0.000805147 0.000269311 -0.00027746 -0.000805147 -0.00141499 -0.00027746 -0.000915148 0.000269311 -0.00027746 0.000969879 0.000396634 -0.00027746 -0.000915148 0.000396634 -0.000275177 0.0018165 0.00144344 0.00272599 0.00233678 0.00144344 0.000969879 0.00233678 0.00184048 0.00272599 0.00233678 0.00383025 0.00342365 0.00233678 0.00184048 0.00342365 0.0029031 0.000969879 0.000396634 0.00184048 0.001237 0.000396634 -0.000275177 0.001237 0.000526303 0.00184048 0.001237 0.0029031 0.00226743 0.001237 0.000526303 0.00226743 0.00151512 -0.00141499 -0.00210513 -0.000915148 -0.0016404 -0.00210513 -0.00286954 -0.0016404 -0.00244802 -0.000915148 -0.0016404 -0.000275177 -0.00104328 -0.0016404 -0.00244802 -0.00104328 -0.00190355 -0.00286954 -0.00369975 -0.00244802 -0.00333022 -0.00369975 -0.00458437 -0.00333022 -0.00427598 -0.00244802 -0.00333022 -0.00190355 -0.00284917 -0.00333022 -0.00427598 -0.00284917 -0.00386973 -0.000275177 -0.00104328 0.000526303 -0.000290787 -0.00104328 -0.00190355 -0.000290787 -0.00121155 0.000526303 -0.000290787 0.00151512 0.000645194 -0.000290787 -0.00121155 0.000645194 -0.000341547 -0.00190355 -0.00284917 -0.00121155 -0.00223055 -0.00284917 -0.00386973 -0.00223055 -0.00333849 -0.00121155 -0.00223055 -0.000341547 -0.00144161 -0.00223055 -0.00333849 -0.00144161 -0.00264748 0.00383025 0.00342365 0.0051516 0.00472771 0.00342365 0.0029031 0.00472771 0.00418314 0.0051516 0.00472771 0.00671495 0.00627532 0.00472771 0.00418314 0.00627532 0.00570897 0.0029031 0.00226743 0.00418314 0.00351548 0.00226743 0.00151512 0.00351548 0.00272146 0.00418314 0.00351548 0.00570897 0.00501216 0.00351548 0.00272146 0.00501216 0.00417957 0.00671495 0.00627532 0.00854781 0.00809532 0.00627532 0.00570897 0.00809532 0.0075114 0.00854781 0.00809532 0.0106796 0.010218 0.00809532 0.0075114 0.010218 0.00962244 0.00570897 0.00501216 0.0075114 0.00679101 0.00501216 0.00417957 0.00679101 0.00592664 0.0075114 0.00679101 0.00962244 0.00888665 0.00679101 0.00592664 0.00888665 0.00800099 0.00151512 0.000645194 0.00272146 0.00179789 0.000645194 -0.000341547 0.00179789 0.000743064 0.00272146 0.00179789 0.00417957 0.00320542 0.00179789 0.000743064 0.00320542 0.00208486 -0.000341547 -0.00144161 0.000743064 -0.000442227 -0.00144161 -0.00264748 -0.000442227 -0.00175318 0.000743064 -0.000442227 0.00208486 0.000815147 -0.000442227 -0.00175318 0.000815147 -0.000602774 0.00417957 0.00320542 0.00592664 0.00490957 0.00320542 0.00208486 0.00490957 0.00373129 0.00592664 0.00490957 0.00800099 0.00695373 0.00490957 0.00373129 0.00695373 0.00573229 0.00208486 0.000815147 0.00373129 0.00238461 0.000815147 -0.000602774 0.00238461 0.000865343 0.00373129 0.00238461 0.00573229 0.00432434 0.00238461 0.000865343 0.00432434 0.00271934 -0.00585743 -0.00691043 -0.00482886 -0.00563945 -0.00691043 -0.00796696 -0.00563945 -0.00645158 -0.00482886 -0.00563945 -0.00532005 -0.00617182 -0.00563945 -0.00645158 -0.00617182 -0.00702504 -0.00796696 -0.00900422 -0.00645158 -0.00724758 -0.00900422 -0.00999775 -0.00724758 -0.00800882 -0.00645158 -0.00724758 -0.00702504 -0.00786111 -0.00724758 -0.00800882 -0.00786111 -0.00866049 -0.00532005 -0.00617182 -0.00521095 -0.0060212 -0.00617182 -0.00702504 -0.0060212 -0.0068338 -0.00521095 -0.0060212 -0.00518478 -0.00598876 -0.0060212 -0.0068338 -0.00598876 -0.00679701 -0.00702504 -0.00786111 -0.0068338 -0.00763097 -0.00786111 -0.00866049 -0.00763097 -0.00839401 -0.0068338 -0.00763097 -0.00679701 -0.00759173 -0.00763097 -0.00839401 -0.00759173 -0.00835401 -0.00999775 -0.010922 -0.00800882 -0.00871615 -0.010922 -0.0117515 -0.00871615 -0.00935055 -0.00800882 -0.00871615 -0.00866049 -0.00940327 -0.00871615 -0.00935055 -0.00940327 -0.0100699 -0.0117515 -0.0124613 -0.00935055 -0.00989432 -0.0124613 -0.0130291 -0.00989432 -0.0103321 -0.00935055 -0.00989432 -0.0100699 -0.0106425 -0.00989432 -0.0103321 -0.0106425 -0.0111061 -0.00866049 -0.00940327 -0.00839401 -0.0091038 -0.00940327 -0.0100699 -0.0091038 -0.00974178 -0.00839401 -0.0091038 -0.00835401 -0.00906453 -0.0091038 -0.00974178 -0.00906453 -0.00970436 -0.0100699 -0.0106425 -0.00974178 -0.010291 -0.0106425 -0.0111061 -0.010291 -0.0107375 -0.00974178 -0.010291 -0.00970436 -0.0102562 -0.010291 -0.0107375 -0.0102562 -0.0107054 -0.00518478 -0.00598876 -0.00510406 -0.00591417 -0.00598876 -0.00679701 -0.00591417 -0.00673135 -0.00510406 -0.00591417 -0.00498526 -0.00581774 -0.00591417 -0.00673135 -0.00581774 -0.006661 -0.00679701 -0.00759173 -0.00673135 -0.00753745 -0.00759173 -0.00835401 -0.00753745 -0.00831297 -0.00673135 -0.00753745 -0.006661 -0.00749621 -0.00753745 -0.00831297 -0.00749621 -0.00830274 -0.00498526 -0.00581774 -0.00481559 -0.0056861 -0.00581774 -0.006661 -0.0056861 -0.00657224 -0.00481559 -0.0056861 -0.00458437 -0.00550888 -0.0056861 -0.00657224 -0.00550888 -0.00645533 -0.006661 -0.00749621 -0.00657224 -0.0074541 -0.00749621 -0.00830274 -0.0074541 -0.00830945 -0.00657224 -0.0074541 -0.00645533 -0.0074024 -0.0074541 -0.00830945 -0.0074024 -0.00832582 -0.00835401 -0.00906453 -0.00831297 -0.00903773 -0.00906453 -0.00970436 -0.00903773 -0.00969182 -0.00831297 -0.00903773 -0.00830274 -0.00905888 -0.00903773 -0.00969182 -0.00905888 -0.00974303 -0.00970436 -0.0102562 -0.00969182 -0.0102567 -0.0102562 -0.0107054 -0.0102567 -0.0107167 -0.00969182 -0.0102567 -0.00974303 -0.0103347 -0.0102567 -0.0107167 -0.0103347 -0.0108162 -0.00830274 -0.00905888 -0.00830945 -0.0091145 -0.00905888 -0.00974303 -0.0091145 -0.00984507 -0.00830945 -0.0091145 -0.00832582 -0.00919901 -0.0091145 -0.00984507 -0.00919901 -0.00999442 -0.00974303 -0.0103347 -0.00984507 -0.0104779 -0.0103347 -0.0108162 -0.0104779 -0.0109926 -0.00984507 -0.0104779 -0.00999442 -0.0106852 -0.0104779 -0.0109926 -0.0106852 -0.0112471 -0.0130291 -0.013437 -0.0103321 -0.0106522 -0.013437 -0.0136731 -0.0106522 -0.0108488 -0.0103321 -0.0106522 -0.0111061 -0.0114496 -0.0106522 -0.0108488 -0.0114496 -0.0116684 -0.0136731 -0.0137365 -0.0108488 -0.0109214 -0.0137365 -0.0136323 -0.0109214 -0.0108921 -0.0108488 -0.0109214 -0.0116684 -0.0117637 -0.0109214 -0.0108921 -0.0117637 -0.0117556 -0.0111061 -0.0114496 -0.0107375 -0.0110711 -0.0114496 -0.0116684 -0.0110711 -0.0112876 -0.0107375 -0.0110711 -0.0107054 -0.0110417 -0.0110711 -0.0112876 -0.0110417 -0.0112601 -0.0116684 -0.0117637 -0.0112876 -0.0113876 -0.0117637 -0.0117556 -0.0113876 -0.0113893 -0.0112876 -0.0113876 -0.0112601 -0.0113601 -0.0113876 -0.0113893 -0.0113601 -0.0113571 -0.0136323 -0.013421 -0.0108921 -0.0107291 -0.013421 -0.0131181 -0.0107291 -0.0107711 -0.0108921 -0.0107291 -0.0117556 -0.0116191 -0.0107291 -0.0107711 -0.0116191 -0.0116556 -0.0131181 -0.0122415 -0.0107711 -0.00958302 -0.0122415 -0.013325 -0.00958302 -0.0120759 -0.0107711 -0.00958302 -0.0116556 -0.0104775 -0.00958302 -0.0120759 -0.0104775 -0.0124249 -0.0117556 -0.0116191 -0.0113893 -0.0112604 -0.0116191 -0.0116556 -0.0112604 -0.0112983 -0.0113893 -0.0112604 -0.0113571 -0.0112164 -0.0112604 -0.0112983 -0.0112164 -0.0112208 -0.0116556 -0.0104775 -0.0112983 -0.0100886 -0.0104775 -0.0124249 -0.0100886 -0.0121115 -0.0112983 -0.0100886 -0.0112208 -0.00998023 -0.0100886 -0.0121115 -0.00998023 -0.0118217 -0.0107054 -0.0110417 -0.0107167 -0.0110602 -0.0110417 -0.0112601 -0.0110602 -0.011281 -0.0107167 -0.0110602 -0.0108162 -0.0111739 -0.0110602 -0.011281 -0.0111739 -0.0114003 -0.0112601 -0.0113601 -0.011281 -0.0113771 -0.0113601 -0.0113571 -0.0113771 -0.0113623 -0.011281 -0.0113771 -0.0114003 -0.0114919 -0.0113771 -0.0113623 -0.0114919 -0.0114614 -0.0108162 -0.0111739 -0.0109926 -0.0113731 -0.0111739 -0.0114003 -0.0113731 -0.0116098 -0.0109926 -0.0113731 -0.0112471 -0.0116609 -0.0113731 -0.0116098 -0.0116609 -0.0119145 -0.0114003 -0.0114919 -0.0116098 -0.011698 -0.0114919 -0.0114614 -0.011698 -0.0116503 -0.0116098 -0.011698 -0.0119145 -0.0120022 -0.011698 -0.0116503 -0.0120022 -0.0119369 -0.0113571 -0.0112164 -0.0113623 -0.0111994 -0.0112164 -0.0112208 -0.0111994 -0.0111659 -0.0113623 -0.0111994 -0.0114614 -0.0112711 -0.0111994 -0.0111659 -0.0112711 -0.0111973 -0.0112208 -0.00998023 -0.0111659 -0.00988285 -0.00998023 -0.0118217 -0.00988285 -0.0116437 -0.0111659 -0.00988285 -0.0111973 -0.0098682 -0.00988285 -0.0116437 -0.0098682 -0.0115615 -0.0114614 -0.0112711 -0.0116503 -0.0114294 -0.0112711 -0.0111973 -0.0114294 -0.0113148 -0.0116503 -0.0114294 -0.0119369 -0.0116824 -0.0114294 -0.0113148 -0.0116824 -0.0115255 -0.0111973 -0.0098682 -0.0113148 -0.00993191 -0.0098682 -0.0115615 -0.00993191 -0.011583 -0.0113148 -0.00993191 -0.0115255 -0.0100782 -0.00993191 -0.011583 -0.0100782 -0.0117035 -0.00458437 -0.00550888 -0.00427598 -0.00527064 -0.00550888 -0.00645533 -0.00527064 -0.00629548 -0.00427598 -0.00527064 -0.00386973 -0.0049507 -0.00527064 -0.00629548 -0.0049507 -0.00607267 -0.00645533 -0.0074024 -0.00629548 -0.0073276 -0.0074024 -0.00832582 -0.0073276 -0.00834016 -0.00629548 -0.0073276 -0.00607267 -0.00721106 -0.0073276 -0.00834016 -0.00721106 -0.00833616 -0.00386973 -0.0049507 -0.00333849 -0.00452138 -0.0049507 -0.00607267 -0.00452138 -0.0057595 -0.00333849 -0.00452138 -0.00264748 -0.00394646 -0.00452138 -0.0057595 -0.00394646 -0.00531923 -0.00607267 -0.00721106 -0.0057595 -0.00702674 -0.00721106 -0.00833616 -0.00702674 -0.00829031 -0.0057595 -0.00702674 -0.00531923 -0.00673862 -0.00702674 -0.00829031 -0.00673862 -0.00816897 -0.00832582 -0.00919901 -0.00834016 -0.00930312 -0.00919901 -0.00999442 -0.00930312 -0.0101847 -0.00834016 -0.00930312 -0.00833616 -0.00941375 -0.00930312 -0.0101847 -0.00941375 -0.0104067 -0.00999442 -0.0106852 -0.0101847 -0.0109531 -0.0106852 -0.0112471 -0.0109531 -0.0115795 -0.0101847 -0.0109531 -0.0104067 -0.0112771 -0.0109531 -0.0115795 -0.0112771 -0.0119895 -0.00833616 -0.00941375 -0.00829031 -0.00951122 -0.00941375 -0.0104067 -0.00951122 -0.0106458 -0.00829031 -0.00951122 -0.00816897 -0.00956612 -0.00951122 -0.0106458 -0.00956612 -0.0108787 -0.0104067 -0.0112771 -0.0106458 -0.0116483 -0.0112771 -0.0119895 -0.0116483 -0.0124745 -0.0106458 -0.0116483 -0.0108787 -0.012051 -0.0116483 -0.0124745 -0.012051 -0.0130276 -0.00264748 -0.00394646 -0.00175318 -0.00317944 -0.00394646 -0.00531923 -0.00317944 -0.00470328 -0.00175318 -0.00317944 -0.000602774 -0.00216241 -0.00317944 -0.00470328 -0.00216241 -0.0038493 -0.00531923 -0.00673862 -0.00470328 -0.00629757 -0.00673862 -0.00816897 -0.00629757 -0.00792456 -0.00470328 -0.00629757 -0.0038493 -0.0056383 -0.00629757 -0.00792456 -0.0056383 -0.0074912 -0.000602774 -0.00216241 0.000865343 -0.000825672 -0.00216241 -0.0038493 -0.000825672 -0.00267962 0.000865343 -0.000825672 0.00271934 0.000910508 -0.000825672 -0.00267962 0.000910508 -0.00110192 -0.0038493 -0.0056383 -0.00267962 -0.00467622 -0.0056383 -0.0074912 -0.00467622 -0.00677987 