# vtk DataFile Version 3.0
#This file was generated by the deal.II library on 2026/1/5 at 14:19:37
ASCII
DATASET UNSTRUCTURED_GRID

POINTS 4096 double
0 0 0
0.03125 0 0
0 0.03125 0
0.03125 0.03125 0
0.03125 0 0
0.0625 0 0
0.03125 0.03125 0
0.0625 0.03125 0
0 0.03125 0
0.03125 0.03125 0
0 0.0625 0
0.03125 0.0625 0
0.03125 0.03125 0
0.0625 0.03125 0
0.03125 0.0625 0
0.0625 0.0625 0
0.0625 0 0
0.09375 0 0
0.0625 0.03125 0
0.09375 0.03125 0
0.09375 0 0
0.125 0 0
0.09375 0.03125 0
0.125 0.03125 0
0.0625 0.03125 0
0.09375 0.03125 0
0.0625 0.0625 0
0.09375 0.0625 0
0.09375 0.03125 0
0.125 0.03125 0
0.09375 0.0625 0
0.125 0.0625 0
0 0.0625 0
0.03125 0.0625 0
0 0.09375 0
0.03125 0.09375 0
0.03125 0.0625 0
0.0625 0.0625 0
0.03125 0.09375 0
0.0625 0.09375 0
0 0.09375 0
0.03125 0.09375 0
0 0.125 0
0.03125 0.125 0
0.03125 0.09375 0
0.0625 0.09375 0
0.03125 0.125 0
0.0625 0.125 0
0.0625 0.0625 0
0.09375 0.0625 0
0.0625 0.09375 0
0.09375 0.09375 0
0.09375 0.0625 0
0.125 0.0625 0
0.09375 0.09375 0
0.125 0.09375 0
0.0625 0.09375 0
0.09375 0.09375 0
0.0625 0.125 0
0.09375 0.125 0
0.09375 0.09375 0
0.125 0.09375 0
0.09375 0.125 0
0.125 0.125 0
0.125 0 0
0.15625 0 0
0.125 0.03125 0
0.15625 0.03125 0
0.15625 0 0
0.1875 0 0
0.15625 0.03125 0
0.1875 0.03125 0
0.125 0.03125 0
0.15625 0.03125 0
0.125 0.0625 0
0.15625 0.0625 0
0.15625 0.03125 0
0.1875 0.03125 0
0.15625 0.0625 0
0.1875 0.0625 0
0.1875 0 0
0.21875 0 0
0.1875 0.03125 0
0.21875 0.03125 0
0.21875 0 0
0.25 0 0
0.21875 0.03125 0
0.25 0.03125 0
0.1875 0.03125 0
0.21875 0.03125 0
0.1875 0.0625 0
0.21875 0.0625 0
0.21875 0.03125 0
0.25 0.03125 0
0.21875 0.0625 0
0.25 0.0625 0
0.125 0.0625 0
0.15625 0.0625 0
0.125 0.09375 0
0.15625 0.09375 0
0.15625 0.0625 0
0.1875 0.0625 0
0.15625 0.09375 0
0.1875 0.09375 0
0.125 0.09375 0
0.15625 0.09375 0
0.125 0.125 0
0.15625 0.125 0
0.15625 0.09375 0
0.1875 0.09375 0
0.15625 0.125 0
0.1875 0.125 0
0.1875 0.0625 0
0.21875 0.0625 0
0.1875 0.09375 0
0.21875 0.09375 0
0.21875 0.0625 0
0.25 0.0625 0
0.21875 0.09375 0
0.25 0.09375 0
0.1875 0.09375 0
0.21875 0.09375 0
0.1875 0.125 0
0.21875 0.125 0
0.21875 0.09375 0
0.25 0.09375 0
0.21875 0.125 0
0.25 0.125 0
0 0.125 0
0.03125 0.125 0
0 0.15625 0
0.03125 0.15625 0
0.03125 0.125 0
0.0625 0.125 0
0.03125 0.15625 0
0.0625 0.15625 0
0 0.15625 0
0.03125 0.15625 0
0 0.1875 0
0.03125 0.1875 0
0.03125 0.15625 0
0.0625 0.15625 0
0.03125 0.1875 0
0.0625 0.1875 0
0.0625 0.125 0
0.09375 0.125 0
0.0625 0.15625 0
0.09375 0.15625 0
0.09375 0.125 0
0.125 0.125 0
0.09375 0.15625 0
0.125 0.15625 0
0.0625 0.15625 0
0.09375 0.15625 0
0.0625 0.1875 0
0.09375 0.1875 0
0.09375 0.15625 0
0.125 0.15625 0
0.09375 0.1875 0
0.125 0.1875 0
0 0.1875 0
0.03125 0.1875 0
0 0.21875 0
0.03125 0.21875 0
0.03125 0.1875 0
0.0625 0.1875 0
0.03125 0.21875 0
0.0625 0.21875 0
0 0.21875 0
0.03125 0.21875 0
0 0.25 0
0.03125 0.25 0
0.03125 0.21875 0
0.0625 0.21875 0
0.03125 0.25 0
0.0625 0.25 0
0.0625 0.1875 0
0.09375 0.1875 0
0.0625 0.21875 0
0.09375 0.21875 0
0.09375 0.1875 0
0.125 0.1875 0
0.09375 0.21875 0
0.125 0.21875 0
0.0625 0.21875 0
0.09375 0.21875 0
0.0625 0.25 0
0.09375 0.25 0
0.09375 0.21875 0
0.125 0.21875 0
0.09375 0.25 0
0.125 0.25 0
0.125 0.125 0
0.15625 0.125 0
0.125 0.15625 0
0.15625 0.15625 0
0.15625 0.125 0
0.1875 0.125 0
0.15625 0.15625 0
0.1875 0.15625 0
0.125 0.15625 0
0.15625 0.15625 0
0.125 0.1875 0
0.15625 0.1875 0
0.15625 0.15625 0
0.1875 0.15625 0
0.15625 0.1875 0
0.1875 0.1875 0
0.1875 0.125 0
0.21875 0.125 0
0.1875 0.15625 0
0.21875 0.15625 0
0.21875 0.125 0
0.25 0.125 0
0.21875 0.15625 0
0.25 0.15625 0
0.1875 0.15625 0
0.21875 0.15625 0
0.1875 0.1875 0
0.21875 0.1875 0
0.21875 0.15625 0
0.25 0.15625 0
0.21875 0.1875 0
0.25 0.1875 0
0.125 0.1875 0
0.15625 0.1875 0
0.125 0.21875 0
0.15625 0.21875 0
0.15625 0.1875 0
0.1875 0.1875 0
0.15625 0.21875 0
0.1875 0.21875 0
0.125 0.21875 0
0.15625 0.21875 0
0.125 0.25 0
0.15625 0.25 0
0.15625 0.21875 0
0.1875 0.21875 0
0.15625 0.25 0
0.1875 0.25 0
0.1875 0.1875 0
0.21875 0.1875 0
0.1875 0.21875 0
0.21875 0.21875 0
0.21875 0.1875 0
0.25 0.1875 0
0.21875 0.21875 0
0.25 0.21875 0
0.1875 0.21875 0
0.21875 0.21875 0
0.1875 0.25 0
0.21875 0.25 0
0.21875 0.21875 0
0.25 0.21875 0
0.21875 0.25 0
0.25 0.25 0
0.25 0 0
0.28125 0 0
0.25 0.03125 0
0.28125 0.03125 0
0.28125 0 0
0.3125 0 0
0.28125 0.03125 0
0.3125 0.03125 0
0.25 0.03125 0
0.28125 0.03125 0
0.25 0.0625 0
0.28125 0.0625 0
0.28125 0.03125 0
0.3125 0.03125 0
0.28125 0.0625 0
0.3125 0.0625 0
0.3125 0 0
0.34375 0 0
0.3125 0.03125 0
0.34375 0.03125 0
0.34375 0 0
0.375 0 0
0.34375 0.03125 0
0.375 0.03125 0
0.3125 0.03125 0
0.34375 0.03125 0
0.3125 0.0625 0
0.34375 0.0625 0
0.34375 0.03125 0
0.375 0.03125 0
0.34375 0.0625 0
0.375 0.0625 0
0.25 0.0625 0
0.28125 0.0625 0
0.25 0.09375 0
0.28125 0.09375 0
0.28125 0.0625 0
0.3125 0.0625 0
0.28125 0.09375 0
0.3125 0.09375 0
0.25 0.09375 0
0.28125 0.09375 0
0.25 0.125 0
0.28125 0.125 0
0.28125 0.09375 0
0.3125 0.09375 0
0.28125 0.125 0
0.3125 0.125 0
0.3125 0.0625 0
0.34375 0.0625 0
0.3125 0.09375 0
0.34375 0.09375 0
0.34375 0.0625 0
0.375 0.0625 0
0.34375 0.09375 0
0.375 0.09375 0
0.3125 0.09375 0
0.34375 0.09375 0
0.3125 0.125 0
0.34375 0.125 0
0.34375 0.09375 0
0.375 0.09375 0
0.34375 0.125 0
0.375 0.125 0
0.375 0 0
0.40625 0 0
0.375 0.03125 0
0.40625 0.03125 0
0.40625 0 0
0.4375 0 0
0.40625 0.03125 0
0.4375 0.03125 0
0.375 0.03125 0
0.40625 0.03125 0
0.375 0.0625 0
0.40625 0.0625 0
0.40625 0.03125 0
0.4375 0.03125 0
0.40625 0.0625 0
0.4375 0.0625 0
0.4375 0 0
0.46875 0 0
0.4375 0.03125 0
0.46875 0.03125 0
0.46875 0 0
0.5 0 0
0.46875 0.03125 0
0.5 0.03125 0
0.4375 0.03125 0
0.46875 0.03125 0
0.4375 0.0625 0
0.46875 0.0625 0
0.46875 0.03125 0
0.5 0.03125 0
0.46875 0.0625 0
0.5 0.0625 0
0.375 0.0625 0
0.40625 0.0625 0
0.375 0.09375 0
0.40625 0.09375 0
0.40625 0.0625 0
0.4375 0.0625 0
0.40625 0.09375 0
0.4375 0.09375 0
0.375 0.09375 0
0.40625 0.09375 0
0.375 0.125 0
0.40625 0.125 0
0.40625 0.09375 0
0.4375 0.09375 0
0.40625 0.125 0
0.4375 0.125 0
0.4375 0.0625 0
0.46875 0.0625 0
0.4375 0.09375 0
0.46875 0.09375 0
0.46875 0.0625 0
0.5 0.0625 0
0.46875 0.09375 0
0.5 0.09375 0
0.4375 0.09375 0
0.46875 0.09375 0
0.4375 0.125 0
0.46875 0.125 0
0.46875 0.09375 0
0.5 0.09375 0
0.46875 0.125 0
0.5 0.125 0
0.25 0.125 0
0.28125 0.125 0
0.25 0.15625 0
0.28125 0.15625 0
0.28125 0.125 0
0.3125 0.125 0
0.28125 0.15625 0
0.3125 0.15625 0
0.25 0.15625 0
0.28125 0.15625 0
0.25 0.1875 0
0.28125 0.1875 0
0.28125 0.15625 0
0.3125 0.15625 0
0.28125 0.1875 0
0.3125 0.1875 0
0.3125 0.125 0
0.34375 0.125 0
0.3125 0.15625 0
0.34375 0.15625 0
0.34375 0.125 0
0.375 0.125 0
0.34375 0.15625 0
0.375 0.15625 0
0.3125 0.15625 0
0.34375 0.15625 0
0.3125 0.1875 0
0.34375 0.1875 0
0.34375 0.15625 0
0.375 0.15625 0
0.34375 0.1875 0
0.375 0.1875 0
0.25 0.1875 0
0.28125 0.1875 0
0.25 0.21875 0
0.28125 0.21875 0
0.28125 0.1875 0
0.3125 0.1875 0
0.28125 0.21875 0
0.3125 0.21875 0
0.25 0.21875 0
0.28125 0.21875 0
0.25 0.25 0
0.28125 0.25 0
0.28125 0.21875 0
0.3125 0.21875 0
0.28125 0.25 0
0.3125 0.25 0
0.3125 0.1875 0
0.34375 0.1875 0
0.3125 0.21875 0
0.34375 0.21875 0
0.34375 0.1875 0
0.375 0.1875 0
0.34375 0.21875 0
0.375 0.21875 0
0.3125 0.21875 0
0.34375 0.21875 0
0.3125 0.25 0
0.34375 0.25 0
0.34375 0.21875 0
0.375 0.21875 0
0.34375 0.25 0
0.375 0.25 0
0.375 0.125 0
0.40625 0.125 0
0.375 0.15625 0
0.40625 0.15625 0
0.40625 0.125 0
0.4375 0.125 0
0.40625 0.15625 0
0.4375 0.15625 0
0.375 0.15625 0
0.40625 0.15625 0
0.375 0.1875 0
0.40625 0.1875 0
0.40625 0.15625 0
0.4375 0.15625 0
0.40625 0.1875 0
0.4375 0.1875 0
0.4375 0.125 0
0.46875 0.125 0
0.4375 0.15625 0
0.46875 0.15625 0
0.46875 0.125 0
0.5 0.125 0
0.46875 0.15625 0
0.5 0.15625 0
0.4375 0.15625 0
0.46875 0.15625 0
0.4375 0.1875 0
0.46875 0.1875 0
0.46875 0.15625 0
0.5 0.15625 0
0.46875 0.1875 0
0.5 0.1875 0
0.375 0.1875 0
0.40625 0.1875 0
0.375 0.21875 0
0.40625 0.21875 0
0.40625 0.1875 0
0.4375 0.1875 0
0.40625 0.21875 0
0.4375 0.21875 0
0.375 0.21875 0
0.40625 0.21875 0
0.375 0.25 0
0.40625 0.25 0
0.40625 0.21875 0
0.4375 0.21875 0
0.40625 0.25 0
0.4375 0.25 0
0.4375 0.1875 0
0.46875 0.1875 0
0.4375 0.21875 0
0.46875 0.21875 0
0.46875 0.1875 0
0.5 0.1875 0
0.46875 0.21875 0
0.5 0.21875 0
0.4375 0.21875 0
0.46875 0.21875 0
0.4375 0.25 0
0.46875 0.25 0
0.46875 0.21875 0
0.5 0.21875 0
0.46875 0.25 0
0.5 0.25 0
0 0.25 0
0.03125 0.25 0
0 0.28125 0
0.03125 0.28125 0
0.03125 0.25 0
0.0625 0.25 0
0.03125 0.28125 0
0.0625 0.28125 0
0 0.28125 0
0.03125 0.28125 0
0 0.3125 0
0.03125 0.3125 0
0.03125 0.28125 0
0.0625 0.28125 0
0.03125 0.3125 0
0.0625 0.3125 0
0.0625 0.25 0
0.09375 0.25 0
0.0625 0.28125 0
0.09375 0.28125 0
0.09375 0.25 0
0.125 0.25 0
0.09375 0.28125 0
0.125 0.28125 0
0.0625 0.28125 0
0.09375 0.28125 0
0.0625 0.3125 0
0.09375 0.3125 0
0.09375 0.28125 0
0.125 0.28125 0
0.09375 0.3125 0
0.125 0.3125 0
0 0.3125 0
0.03125 0.3125 0
0 0.34375 0
0.03125 0.34375 0
0.03125 0.3125 0
0.0625 0.3125 0
0.03125 0.34375 0
0.0625 0.34375 0
0 0.34375 0
0.03125 0.34375 0
0 0.375 0
0.03125 0.375 0
0.03125 0.34375 0
0.0625 0.34375 0
0.03125 0.375 0
0.0625 0.375 0
0.0625 0.3125 0
0.09375 0.3125 0
0.0625 0.34375 0
0.09375 0.34375 0
0.09375 0.3125 0
0.125 0.3125 0
0.09375 0.34375 0
0.125 0.34375 0
0.0625 0.34375 0
0.09375 0.34375 0
0.0625 0.375 0
0.09375 0.375 0
0.09375 0.34375 0
0.125 0.34375 0
0.09375 0.375 0
0.125 0.375 0
0.125 0.25 0
0.15625 0.25 0
0.125 0.28125 0
0.15625 0.28125 0
0.15625 0.25 0
0.1875 0.25 0
0.15625 0.28125 0
0.1875 0.28125 0
0.125 0.28125 0
0.15625 0.28125 0
0.125 0.3125 0
0.15625 0.3125 0
0.15625 0.28125 0
0.1875 0.28125 0
0.15625 0.3125 0
0.1875 0.3125 0
0.1875 0.25 0
0.21875 0.25 0
0.1875 0.28125 0
0.21875 0.28125 0
0.21875 0.25 0
0.25 0.25 0
0.21875 0.28125 0
0.25 0.28125 0
0.1875 0.28125 0
0.21875 0.28125 0
0.1875 0.3125 0
0.21875 0.3125 0
0.21875 0.28125 0
0.25 0.28125 0
0.21875 0.3125 0
0.25 0.3125 0
0.125 0.3125 0
0.15625 0.3125 0
0.125 0.34375 0
0.15625 0.34375 0
0.15625 0.3125 0
0.1875 0.3125 0
0.15625 0.34375 0
0.1875 0.34375 0
0.125 0.34375 0
[...]
POINT_DATA 4096
SCALARS p double 1
LOOKUP_TABLE default
2.2828e-05 0.000111864 -5.45902e-05 3.98879e-05 0.000111864 0.000358115 3.98879e-05 0.000173528 -5.45902e-05 3.98879e-05 -0.000300756 -9.41613e-05 3.98879e-05 0.000173528 -9.41613e-05 4.03107e-05 0.000358115 0.000624523 0.000173528 0.000322296 0.000624523 0.00081506 0.000322296 0.000422329 0.000173528 0.000322296 4.03107e-05 0.000179094 0.000322296 0.000422329 0.000179094 0.000257058 -0.000300756 -9.41613e-05 -0.000574546 -0.000240157 -9.41613e-05 4.03107e-05 -0.000240157 -8.9301e-05 -0.000574546 -0.000240157 -0.000781891 -0.000339192 -0.000240157 -8.9301e-05 -0.000339192 -0.000154624 4.03107e-05 0.000179094 -8.9301e-05 5.38299e-05 0.000179094 0.000257058 5.38299e-05 0.000119782 -8.9301e-05 5.38299e-05 -0.000154624 1.18591e-05 5.38299e-05 0.000119782 1.18591e-05 8.34444e-05 0.00081506 0.000884181 0.000422329 0.000443935 0.000884181 0.000815634 0.000443935 0.000371487 0.000422329 0.000443935 0.000257058 0.000256757 0.000443935 0.000371487 0.000256757 0.000163731 0.000815634 0.000607302 0.000371487 0.000199704 0.000607302 0.000264148 0.000199704 -7.09269e-05 0.000371487 0.000199704 0.000163731 -2.78438e-05 0.000199704 -7.09269e-05 -2.78438e-05 -0.000318899 0.000257058 0.000256757 0.000119782 0.000108097 0.000256757 0.000163731 0.000108097 9.35708e-06 0.000119782 0.000108097 8.34444e-05 7.15511e-05 0.000108097 9.35708e-06 7.15511e-05 -2.87121e-05 0.000163731 -2.78438e-05 9.35708e-06 -0.000179945 -2.78438e-05 -0.000318899 -0.000179945 -0.000460615 9.35708e-06 -0.000179945 -2.87121e-05 -0.000218055 -0.000179945 -0.000460615 -0.000218055 -0.000496276 -0.000781891 -0.000339192 -0.000874609 -0.000357307 -0.000339192 -0.000154624 -0.000357307 -0.000132832 -0.000874609 -0.000357307 -0.000828887 -0.000272095 -0.000357307 -0.000132832 -0.000272095 -1.09814e-06 -0.000154624 1.18591e-05 -0.000132832 6.02685e-05 1.18591e-05 8.34444e-05 6.02685e-05 0.000144729 -0.000132832 6.02685e-05 -1.09814e-06 0.000217544 6.02685e-05 0.000144729 0.000217544 0.000318303 -0.000828887 -0.000272095 -0.000631665 -6.91125e-05 -0.000272095 -1.09814e-06 -6.91125e-05 0.000256916 -0.000631665 -6.91125e-05 -0.00027443 0.000262319 -6.91125e-05 0.000256916 0.000262319 0.000654608 -1.09814e-06 0.000217544 0.000256916 0.000498069 0.000217544 0.000318303 0.000498069 0.000616259 0.000256916 0.000498069 0.000654608 0.000915132 0.000498069 0.000616259 0.000915132 0.00105111 8.34444e-05 7.15511e-05 0.000144729 0.000138624 7.15511e-05 -2.87121e-05 0.000138624 4.08212e-05 0.000144729 0.000138624 0.000318303 0.000320875 0.000138624 4.08212e-05 0.000320875 0.000227187 -2.87121e-05 -0.000218055 4.08212e-05 -0.000146884 -0.000218055 -0.000496276 -0.000146884 -0.000423075 4.08212e-05 -0.000146884 0.000227187 4.09093e-05 -0.000146884 -0.000423075 4.09093e-05 -0.000235504 0.000318303 0.000320875 0.000616259 0.000628288 0.000320875 0.000227187 0.000628288 0.000538866 0.000616259 0.000628288 0.00105111 0.00107229 0.000628288 0.000538866 0.00107229 0.000986242 0.000227187 4.09093e-05 0.000538866 0.000352878 4.09093e-05 -0.000235504 0.000352878 7.36009e-05 0.000538866 0.000352878 0.000986242 0.000798622 0.000352878 7.36009e-05 0.000798622 0.000513395 0.000264148 -0.00020568 -7.09269e-05 -0.000436592 -0.00020568 -0.000792713 -0.000436592 -0.000891599 -7.09269e-05 -0.000436592 -0.000318899 -0.000707002 -0.000436592 -0.000891599 -0.000707002 -0.00118748 -0.000792713 -0.00148683 -0.000891599 -0.00142912 -0.00148683 -0.00227728 -0.00142912 -0.00204128 -0.000891599 -0.00142912 -0.00118748 -0.00175413 -0.00142912 -0.00204128 -0.00175413 -0.00239928 -0.000318899 -0.000707002 -0.000460615 -0.000830978 -0.000707002 -0.00118748 -0.000830978 -0.00128753 -0.000460615 -0.000830978 -0.000496276 -0.000861639 -0.000830978 -0.00128753 -0.000861639 -0.00131112 -0.00118748 -0.00175413 -0.00128753 -0.00182526 -0.00175413 -0.00239928 -0.00182526 -0.00243759 -0.00128753 -0.00182526 -0.00131112 -0.00184041 -0.00182526 -0.00243759 -0.00184041 -0.00244367 -0.00227728 -0.00315246 -0.00204128 -0.00271921 -0.00315246 -0.00409957 -0.00271921 -0.00345282 -0.00204128 -0.00271921 -0.00239928 -0.00311393 -0.00271921 -0.00345282 -0.00311393 -0.00388755 -0.00409957 -0.00510424 -0.00345282 -0.00423073 -0.00510424 -0.00615027 -0.00423073 -0.00504013 -0.00345282 -0.00423073 -0.00388755 -0.00470815 -0.00423073 -0.00504013 -0.00470815 -0.00556213 -0.00239928 -0.00311393 -0.00243759 -0.00311651 -0.00311393 -0.00388755 -0.00311651 -0.00385233 -0.00243759 -0.00311651 -0.00244367 -0.00311357 -0.00311651 -0.00385233 -0.00311357 -0.00384102 -0.00388755 -0.00470815 -0.00385233 -0.00463388 -0.00470815 -0.00556213 -0.00463388 -0.00544828 -0.00385233 -0.00463388 -0.00384102 -0.00461534 -0.00463388 -0.00544828 -0.00461534 -0.00542398 -0.000496276 -0.000861639 -0.000423075 -0.000785719 -0.000861639 -0.00131112 -0.000785719 -0.00123199 -0.000423075 -0.000785719 -0.000235504 -0.00059965 -0.000785719 -0.00123199 -0.00059965 -0.0010488 -0.00131112 -0.00184041 -0.00123199 -0.00175807 -0.00184041 -0.00244367 -0.00175807 -0.00235872 -0.00123199 -0.00175807 -0.0010488 -0.00157947 -0.00175807 -0.00235872 -0.00157947 -0.00218692 -0.000235504 -0.00059965 7.36009e-05 -0.00029623 -0.00059965 -0.0010488 -0.00029623 -0.000753968 7.36009e-05 -0.00029623 0.000513395 0.000133486 -0.00029623 -0.000753968 0.000133486 -0.000338599 -0.0010488 -0.00157947 -0.000753968 -0.00129646 -0.00157947 -0.00218692 -0.00129646 -0.00191947 -0.000753968 -0.00129646 -0.000338599 -0.000900049 -0.00129646 -0.00191947 -0.000900049 -0.00154719 -0.00244367 -0.00311357 -0.00235872 -0.00302724 -0.00311357 -0.00384102 -0.00302724 -0.00375518 -0.00235872 -0.00302724 -0.00218692 -0.00286503 -0.00302724 -0.00375518 -0.00286503 -0.00360587 -0.00384102 -0.00461534 -0.00375518 -0.00453229 -0.00461534 -0.00542398 -0.00453229 -0.00534631 -0.00375518 -0.00453229 -0.00360587 -0.00439958 -0.00453229 -0.00534631 -0.00439958 -0.00523407 -0.00218692 -0.00286503 -0.00191947 -0.0026174 -0.00286503 -0.00360587 -0.0026174 -0.00338279 -0.00191947 -0.0026174 -0.00154719 -0.00227498 -0.0026174 -0.00338279 -0.00227498 -0.0030765 -0.00360587 -0.00439958 -0.00338279 -0.00420614 -0.00439958 -0.00523407 -0.00420614 -0.00507548 -0.00338279 -0.00420614 -0.0030765 -0.00394258 -0.00420614 -0.00507548 -0.00394258 -0.00486135 -0.00027443 0.000262319 0.000250374 0.000731535 0.000262319 0.000654608 0.000731535 0.00120414 0.000250374 0.000731535 0.000951367 0.00134817 0.000731535 0.00120414 0.00134817 0.00191789 0.000654608 0.000915132 0.00120414 0.00148149 0.000915132 0.00105111 0.00148149 0.00163551 0.00120414 0.00148149 0.00191789 0.0022103 0.00148149 0.00163551 0.0022103 0.00238302 0.000951367 0.00134817 0.0018394 0.00212314 0.00134817 0.00191789 0.00212314 0.00280945 0.0018394 0.00212314 0.00292825 0.00306956 0.00212314 0.00280945 0.00306956 0.00389463 0.00191789 0.0022103 0.00280945 0.00311601 0.0022103 0.00238302 0.00311601 0.00330863 0.00280945 0.00311601 0.00389463 0.00421518 0.00311601 0.00330863 0.00421518 0.0044295 0.00105111 0.00107229 0.00163551 0.00166506 0.00107229 0.000986242 0.00166506 0.00158103 0.00163551 0.00166506 0.00238302 0.00242017 0.00166506 0.00158103 0.00242017 0.00233667 0.000986242 0.000798622 0.00158103 0.00138953 0.000798622 0.000513395 0.00138953 0.00109511 0.00158103 0.00138953 0.00233667 0.00213901 0.00138953 0.00109511 0.00213901 0.00183226 0.00238302 0.00242017 0.00330863 0.00335287 0.00242017 0.00233667 0.00335287 0.0032686 0.00330863 0.00335287 0.0044295 0.00448065 0.00335287 0.0032686 0.00448065 0.00439465 0.00233667 0.00213901 0.0032686 0.00306273 0.00213901 0.00183226 0.00306273 0.00274094 0.0032686 0.00306273 0.00439465 0.00417892 0.00306273 0.00274094 0.00417892 0.00384 0.00292825 0.00306956 0.00423502 0.00420309 0.00306956 0.00389463 0.00420309 0.005192 0.00423502 0.00420309 0.00578056 0.00554263 0.00420309 0.005192 0.00554263 0.00672375 0.00389463 0.00421518 0.005192 0.00552698 0.00421518 0.0044295 0.00552698 0.00576541 0.005192 0.00552698 0.00672375 0.00707416 0.00552698 0.00576541 0.00707416 0.00733959 0.00578056 0.00554263 0.00759004 0.00711099 0.00554263 0.00672375 0.00711099 0.00851647 0.00759004 0.00711099 0.00969383 0.00893587 0.00711099 0.00851647 0.00893587 0.0106024 0.00672375 0.00707416 0.00851647 0.00888361 0.00707416 0.00733959 0.00888361 0.00917917 0.00851647 0.00888361 0.0106024 0.0109877 0.00888361 0.00917917 0.0109877 0.0113163 0.0044295 0.00448065 0.00576541 0.00582366 0.00448065 0.00439465 0.00582366 0.00573529 0.00576541 0.00582366 0.00733959 0.00740533 0.00582366 0.00573529 0.00740533 0.00731419 0.00439465 0.00417892 0.00573529 0.0055086 0.00417892 0.00384 0.0055086 0.00515121 0.00573529 0.0055086 0.00731419 0.00707579 0.0055086 0.00515121 0.00707579 0.0066993 0.00733959 0.00740533 0.00917917 0.00925268 0.00740533 0.00731419 0.00925268 0.00915831 0.00917917 0.00925268 0.0113163 0.0113972 0.00925268 0.00915831 0.0113972 0.0112984 0.00731419 0.00707579 0.00915831 0.00890765 0.00707579 0.0066993 0.00890765 0.00851198 0.00915831 0.00890765 0.0112984 0.0110345 0.00890765 0.00851198 0.0110345 0.0106196 0.000513395 0.000133486 0.00109511 0.000700773 0.000133486 -0.000338599 0.000700773 0.000208852 0.00109511 0.000700773 0.00183226 0.00141949 0.000700773 0.000208852 0.00141949 0.000902759 -0.000338599 -0.000900049 0.000208852 -0.000378294 -0.000900049 -0.00154719 -0.000378294 -0.00105766 0.000208852 -0.000378294 0.000902759 0.000283842 -0.000378294 -0.00105766 0.000283842 -0.000435056 0.00183226 0.00141949 0.00274094 0.00230639 0.00141949 0.000902759 0.00230639 0.0017607 0.00274094 0.00230639 0.00384 0.0033811 0.00230639 0.0017607 0.0033811 0.00280344 0.000902759 0.000283842 0.0017607 0.00110494 0.000283842 -0.000435056 0.00110494 0.000340332 0.0017607 0.00110494 0.00280344 0.00210716 0.00110494 0.000340332 0.00210716 0.00129224 -0.00154719 -0.00227498 -0.00105766 -0.00182485 -0.00227498 -0.0030765 -0.00182485 -0.00267361 -0.00105766 -0.00182485 -0.000435056 -0.00125041 -0.00182485 -0.00267361 -0.00125041 -0.0021568 -0.0030765 -0.00394258 -0.00267361 -0.00359521 -0.00394258 -0.00486135 -0.00359521 -0.00457798 -0.00267361 -0.00359521 -0.0021568 -0.00314619 -0.00359521 -0.00457798 -0.00314619 -0.00420734 -0.000435056 -0.00125041 0.000340332 -0.000530761 -0.00125041 -0.0021568 -0.000530761 -0.00150404 0.000340332 -0.000530761 0.00129224 0.00035962 -0.000530761 -0.00150404 0.00035962 -0.000687993 -0.0021568 -0.00314619 -0.00150404 -0.00257251 -0.00314619 -0.00420734 -0.00257251 -0.00372574 -0.00150404 -0.00257251 -0.000687993 -0.00184515 -0.00257251 -0.00372574 -0.00184515 -0.00310276 0.00384 0.0033811 0.00515121 0.00466651 0.0033811 0.00280344 0.00466651 0.00405524 0.00515121 0.00466651 0.0066993 0.00618846 0.00466651 0.00405524 0.00618846 0.00554353 0.00280344 0.00210716 0.00405524 0.00331646 0.00210716 0.00129224 0.00331646 0.00244872 0.00405524 0.00331646 0.00554353 0.00476237 0.00331646 0.00244872 0.00476237 0.00384185 0.0066993 0.00618846 0.00851198 0.00797568 0.00618846 0.00554353 0.00797568 0.0072986 0.00851198 0.00797568 0.0106196 0.0100592 0.00797568 0.0072986 0.0100592 0.00935278 0.00554353 0.00476237 0.0072986 0.00647741 0.00476237 0.00384185 0.00647741 0.00550706 0.0072986 0.00647741 0.00935278 0.008496 0.00647741 0.00550706 0.008496 0.00748182 0.00129224 0.00035962 0.00244872 0.00145114 0.00035962 -0.000687993 0.00145114 0.000324298 0.00244872 0.00145114 0.00384185 0.00277886 0.00145114 0.000324298 0.00277886 0.00157136 -0.000687993 -0.00184515 0.000324298 -0.000928558 -0.00184515 -0.00310276 -0.000928558 -0.00230045 0.000324298 -0.000928558 0.00157136 0.000219594 -0.000928558 -0.00230045 0.000219594 -0.00127255 0.00384185 0.00277886 0.00550706 0.0043819 0.00277886 0.00157136 0.0043819 0.00309672 0.00550706 0.0043819 0.00748182 0.00630181 0.0043819 0.00309672 0.00630181 0.00494726 0.00157136 0.000219594 0.00309672 0.001648 0.000219594 -0.00127255 0.001648 3.54115e-05 0.00309672 0.001648 0.00494726 0.00341022 0.001648 3.54115e-05 0.00341022 0.00168491 -0.00615027 -0.00721954 -0.00504013 -0.00586675 -0.00721954 -0.008292 -0.00586675 -0.00669485 -0.00504013 -0.00586675 -0.00556213 -0.00643431 -0.00586675 -0.00669485 -0.00643431 -0.00730794 -0.008292 -0.00934585 -0.00669485 -0.00750741 -0.00934585 -0.0103579 -0.00750741 -0.00828652 -0.00669485 -0.00750741 -0.00730794 -0.00816495 -0.00750741 -0.00828652 -0.00816495 -0.00898643 -0.00556213 -0.00643431 -0.00544828 -0.00628105 -0.00643431 -0.00730794 -0.00628105 -0.00711612 -0.00544828 -0.00628105 -0.00542398 -0.00625269 -0.00628105 -0.00711612 -0.00625269 -0.00708546 -0.00730794 -0.00816495 -0.00711612 -0.00793616 -0.00816495 -0.00898643 -0.00793616 -0.00872293 -0.00711612 -0.00793616 -0.00708546 -0.00790493 -0.00793616 -0.00872293 -0.00790493 -0.00869265 -0.0103579 -0.0113038 -0.00828652 -0.00901373 -0.0113038 -0.0121589 -0.00901373 -0.00967066 -0.00828652 -0.00901373 -0.00898643 -0.00975307 -0.00901373 -0.00967066 -0.00975307 -0.0104458 -0.0121589 -0.0128992 -0.00967066 -0.0102398 -0.0128992 -0.0135025 -0.0102398 -0.0107056 -0.00967066 -0.0102398 -0.0104458 -0.011047 -0.0102398 -0.0107056 -0.011047 -0.011541 -0.00898643 -0.00975307 -0.00872293 -0.00945789 -0.00975307 -0.0104458 -0.00945789 -0.0101229 -0.00872293 -0.00945789 -0.00869265 -0.00942983 -0.00945789 -0.0101229 -0.00942983 -0.0100979 -0.0104458 -0.011047 -0.0101229 -0.010701 -0.011047 -0.011541 -0.010701 -0.0111777 -0.0101229 -0.010701 -0.0100979 -0.0106797 -0.010701 -0.0111777 -0.0106797 -0.0111604 -0.00542398 -0.00625269 -0.00534631 -0.00618309 -0.00625269 -0.00708546 -0.00618309 -0.00702652 -0.00534631 -0.00618309 -0.00523407 -0.00609508 -0.00618309 -0.00702652 -0.00609508 -0.00696616 -0.00708546 -0.00790493 -0.00702652 -0.0078589 -0.00790493 -0.00869265 -0.0078589 -0.00866123 -0.00702652 -0.0078589 -0.00696616 -0.00782895 -0.0078589 -0.00866123 -0.00782895 -0.00866338 -0.00523407 -0.00609508 -0.00507548 -0.00597634 -0.00609508 -0.00696616 -0.00597634 -0.00689172 -0.00507548 -0.00597634 -0.00486135 -0.00581812 -0.00597634 -0.00689172 -0.00581812 -0.00679511 -0.00696616 -0.00782895 -0.00689172 -0.00780221 -0.00782895 -0.00866338 -0.00780221 -0.00868627 -0.00689172 -0.00780221 -0.00679511 -0.00777164 -0.00780221 -0.00868627 -0.00777164 -0.00872425 -0.00869265 -0.00942983 -0.00866123 -0.0094139 -0.00942983 -0.0100979 -0.0094139 -0.0100974 -0.00866123 -0.0094139 -0.00866338 -0.00944849 -0.0094139 -0.0100974 -0.00944849 -0.0101632 -0.0100979 -0.0106797 -0.0100974 -0.0106936 -0.0106797 -0.0111604 -0.0106936 -0.0111864 -0.0100974 -0.0106936 -0.0101632 -0.0107874 -0.0106936 -0.0111864 -0.0107874 -0.0113035 -0.00866338 -0.00944849 -0.00868627 -0.00952102 -0.00944849 -0.0101632 -0.00952102 -0.0102831 -0.00868627 -0.00952102 -0.00872425 -0.00962755 -0.00952102 -0.0102831 -0.00962755 -0.0104551 -0.0101632 -0.0107874 -0.0102831 -0.0109499 -0.0107874 -0.0113035 -0.0109499 -0.0115011 -0.0102831 -0.0109499 -0.0104551 -0.011181 -0.0109499 -0.0115011 -0.011181 -0.0117814 -0.0135025 -0.0139498 -0.0107056 -0.0110555 -0.0139498 -0.0142274 -0.0110555 -0.0112826 -0.0107056 -0.0110555 -0.011541 -0.0119163 -0.0110555 -0.0112826 -0.0119163 -0.0121667 -0.0142274 -0.0143314 -0.0112826 -0.0113841 -0.0143314 -0.0142629 -0.0113841 -0.0113803 -0.0112826 -0.0113841 -0.0121667 -0.0122914 -0.0113841 -0.0113803 -0.0122914 -0.0123089 -0.011541 -0.0119163 -0.0111777 -0.0115424 -0.0119163 -0.0121667 -0.0115424 -0.0117894 -0.0111777 -0.0115424 -0.0111604 -0.0115288 -0.0115424 -0.0117894 -0.0115288 -0.0117787 -0.0121667 -0.0122914 -0.0117894 -0.0119177 -0.0122914 -0.0123089 -0.0119177 -0.0119441 -0.0117894 -0.0119177 -0.0117787 -0.0119079 -0.0119177 -0.0119441 -0.0119079 -0.0119308 -0.0142629 -0.0140796 -0.0113803 -0.0112338 -0.0140796 -0.0137898 -0.0112338 -0.0112969 -0.0113803 -0.0112338 -0.0123089 -0.0121894 -0.0112338 -0.0112969 -0.0121894 -0.0122465 -0.0137898 -0.0128763 -0.0112969 -0.0100466 -0.0128763 -0.0140276 -0.0100466 -0.0127012 -0.0112969 -0.0100466 -0.0122465 -0.0110072 -0.0100466 -0.0127012 -0.0110072 -0.0130868 -0.0123089 -0.0121894 -0.0119441 -0.0118314 -0.0121894 -0.0122465 -0.0118314 -0.0118908 -0.0119441 -0.0118314 -0.0119308 -0.0118076 -0.0118314 -0.0118908 -0.0118076 -0.0118351 -0.0122465 -0.0110072 -0.0118908 -0.010618 -0.0110072 -0.0130868 -0.010618 -0.0127875 -0.0118908 -0.010618 -0.0118351 -0.0105314 -0.010618 -0.0127875 -0.0105314 -0.0125228 -0.0111604 -0.0115288 -0.0111864 -0.0115635 -0.0115288 -0.0117787 -0.0115635 -0.0118177 -0.0111864 -0.0115635 -0.0113035 -0.0116972 -0.0115635 -0.0118177 -0.0116972 -0.0119598 -0.0117787 -0.0119079 -0.0118177 -0.0119453 -0.0119079 -0.0119308 -0.0119453 -0.0119587 -0.0118177 -0.0119453 -0.0119598 -0.012086 -0.0119453 -0.0119587 -0.012086 -0.0120873 -0.0113035 -0.0116972 -0.0115011 -0.0119203 -0.0116972 -0.0119598 -0.0119203 -0.0121967 -0.0115011 -0.0119203 -0.0117814 -0.012237 -0.0119203 -0.0121967 -0.012237 -0.0125344 -0.0119598 -0.012086 -0.0121967 -0.0123238 -0.012086 -0.0120873 -0.0123238 -0.0123124 -0.0121967 -0.0123238 -0.0125344 -0.012666 -0.0123238 -0.0123124 -0.012666 -0.0126427 -0.0119308 -0.0118076 -0.0119587 -0.0118158 -0.0118076 -0.0118351 -0.0118158 -0.0118086 -0.0119587 -0.0118158 -0.0120873 -0.0119204 -0.0118158 -0.0118086 -0.0119204 -0.0118773 -0.0118351 -0.0105314 -0.0118086 -0.010462 -0.0105314 -0.0125228 -0.010462 -0.012383 -0.0118086 -0.010462 -0.0118773 -0.0104843 -0.010462 -0.012383 -0.0104843 -0.0123494 -0.0120873 -0.0119204 -0.0123124 -0.0121195 -0.0119204 -0.0118773 -0.0121195 -0.012041 -0.0123124 -0.0121195 -0.0126427 -0.0124219 -0.0121195 -0.012041 -0.0124219 -0.0123077 -0.0118773 -0.0104843 -0.012041 -0.0105935 -0.0104843 -0.0123494 -0.0105935 -0.0124301 -0.012041 -0.0105935 -0.0123077 -0.0107947 -0.0105935 -0.0124301 -0.0107947 -0.0126215 -0.00486135 -0.00581812 -0.00457798 -0.00560704 -0.00581812 -0.00679511 -0.00560704 -0.00666377 -0.00457798 -0.00560704 -0.00420734 -0.00532527 -0.00560704 -0.00666377 -0.00532527 -0.00648063 -0.00679511 -0.00777164 -0.00666377 -0.00772594 -0.00777164 -0.00872425 -0.00772594 -0.0087678 -0.00666377 -0.00772594 -0.00648063 -0.00764952 -0.00772594 -0.0087678 -0.00764952 -0.00880353 -0.00420734 -0.00532527 -0.00372574 -0.00494897 -0.00532527 -0.00648063 -0.00494897 -0.00622241 -0.00372574 -0.00494897 -0.00310276 -0.00444691 -0.00494897 -0.00622241 -0.00444691 -0.00585789 -0.00648063 -0.00764952 -0.00622241 -0.00752057 -0.00764952 -0.00880353 -0.00752057 -0.00881218 -0.00622241 -0.00752057 -0.00585789 -0.00730904 -0.00752057 -0.00881218 -0.00730904 -0.00876628 -0.00872425 -0.00962755 -0.0087678 -0.00976075 -0.00962755 -0.0104551 -0.00976075 -0.0106745 -0.0087678 -0.00976075 -0.00880353 -0.00991028 -0.00976075 -0.0106745 -0.00991028 -0.0109347 -0.0104551 -0.011181 -0.0106745 -0.0114788 -0.011181 -0.0117814 -0.0114788 -0.0121454 -0.0106745 -0.0114788 -0.0109347 -0.0118407 -0.0114788 -0.0121454 -0.0118407 -0.0125944 -0.00880353 -0.00991028 -0.00881218 -0.0100605 -0.00991028 -0.0109347 -0.0100605 -0.0112244 -0.00881218 -0.0100605 -0.00876628 -0.010188 -0.0100605 -0.0112244 -0.010188 -0.0115261 -0.0109347 -0.0118407 -0.0112244 -0.0122609 -0.0118407 -0.0125944 -0.0122609 -0.0131283 -0.0112244 -0.0122609 -0.0115261 -0.0127285 -0.0122609 -0.0131283 -0.0127285 -0.0137436 -0.00310276 -0.00444691 -0.00230045 -0.00377918 -0.00444691 -0.00585789 -0.00377918 -0.00534606 -0.00230045 -0.00377918 -0.00127255 -0.00289585 -0.00377918 -0.00534606 -0.00289585 -0.00463407 -0.00585789 -0.00730904 -0.00534606 -0.00697412 -0.00730904 -0.00876628 -0.00697412 -0.008627 -0.00534606 -0.00697412 -0.00463407 -0.00646138 -0.00697412 -0.008627 -0.00646138 -0.0083404 -0.00127255 -0.00289585 3.54115e-05 -0.00173645 -0.00289585 -0.00463407 -0.00173645 -0.00365566 3.54115e-05 -0.00173645 0.00168491 -0.000230436 -0.00173645 -0.00365566 -0.000230436 -0.00233075 -0.00463407 -0.00646138 -0.00365566 -0.00569993 -0.00646138 -0.0083404 -0.00569993 -0.00783326 -0.00365566 -0.00569993 -0.00233075 -0.00460049 -0.00569993 -0.00783326 -0.004