# vtk DataFile Version 3.0
#This file was generated by the deal.II library on 2026/1/5 at 14:19:30
ASCII
DATASET UNSTRUCTURED_GRID

POINTS 4096 double
0 0 0
0.03125 0 0
0 0.03125 0
0.03125 0.03125 0
0.03125 0 0
0.0625 0 0
0.03125 0.03125 0
0.0625 0.03125 0
0 0.03125 0
0.03125 0.03125 0
0 0.0625 0
0.03125 0.0625 0
0.03125 0.03125 0
0.0625 0.03125 0
0.03125 0.0625 0
0.0625 0.0625 0
0.0625 0 0
0.09375 0 0
0.0625 0.03125 0
0.09375 0.03125 0
0.09375 0 0
0.125 0 0
0.09375 0.03125 0
0.125 0.03125 0
0.0625 0.03125 0
0.09375 0.03125 0
0.0625 0.0625 0
0.09375 0.0625 0
0.09375 0.03125 0
0.125 0.03125 0
0.09375 0.0625 0
0.125 0.0625 0
0 0.0625 0
0.03125 0.0625 0
0 0.09375 0
0.03125 0.09375 0
0.03125 0.0625 0
0.0625 0.0625 0
0.03125 0.09375 0
0.0625 0.09375 0
0 0.09375 0
0.03125 0.09375 0
0 0.125 0
0.03125 0.125 0
0.03125 0.09375 0
0.0625 0.09375 0
0.03125 0.125 0
0.0625 0.125 0
0.0625 0.0625 0
0.09375 0.0625 0
0.0625 0.09375 0
0.09375 0.09375 0
0.09375 0.0625 0
0.125 0.0625 0
0.09375 0.09375 0
0.125 0.09375 0
0.0625 0.09375 0
0.09375 0.09375 0
0.0625 0.125 0
0.09375 0.125 0
0.09375 0.09375 0
0.125 0.09375 0
0.09375 0.125 0
0.125 0.125 0
0.125 0 0
0.15625 0 0
0.125 0.03125 0
0.15625 0.03125 0
0.15625 0 0
0.1875 0 0
0.15625 0.03125 0
0.1875 0.03125 0
0.125 0.03125 0
0.15625 0.03125 0
0.125 0.0625 0
0.15625 0.0625 0
0.15625 0.03125 0
0.1875 0.03125 0
0.15625 0.0625 0
0.1875 0.0625 0
0.1875 0 0
0.21875 0 0
0.1875 0.03125 0
0.21875 0.03125 0
0.21875 0 0
0.25 0 0
0.21875 0.03125 0
0.25 0.03125 0
0.1875 0.03125 0
0.21875 0.03125 0
0.1875 0.0625 0
0.21875 0.0625 0
0.21875 0.03125 0
0.25 0.03125 0
0.21875 0.0625 0
0.25 0.0625 0
0.125 0.0625 0
0.15625 0.0625 0
0.125 0.09375 0
0.15625 0.09375 0
0.15625 0.0625 0
0.1875 0.0625 0
0.15625 0.09375 0
0.1875 0.09375 0
0.125 0.09375 0
0.15625 0.09375 0
0.125 0.125 0
0.15625 0.125 0
0.15625 0.09375 0
0.1875 0.09375 0
0.15625 0.125 0
0.1875 0.125 0
0.1875 0.0625 0
0.21875 0.0625 0
0.1875 0.09375 0
0.21875 0.09375 0
0.21875 0.0625 0
0.25 0.0625 0
0.21875 0.09375 0
0.25 0.09375 0
0.1875 0.09375 0
0.21875 0.09375 0
0.1875 0.125 0
0.21875 0.125 0
0.21875 0.09375 0
0.25 0.09375 0
0.21875 0.125 0
0.25 0.125 0
0 0.125 0
0.03125 0.125 0
0 0.15625 0
0.03125 0.15625 0
0.03125 0.125 0
0.0625 0.125 0
0.03125 0.15625 0
0.0625 0.15625 0
0 0.15625 0
0.03125 0.15625 0
0 0.1875 0
0.03125 0.1875 0
0.03125 0.15625 0
0.0625 0.15625 0
0.03125 0.1875 0
0.0625 0.1875 0
0.0625 0.125 0
0.09375 0.125 0
0.0625 0.15625 0
0.09375 0.15625 0
0.09375 0.125 0
0.125 0.125 0
0.09375 0.15625 0
0.125 0.15625 0
0.0625 0.15625 0
0.09375 0.15625 0
0.0625 0.1875 0
0.09375 0.1875 0
0.09375 0.15625 0
0.125 0.15625 0
0.09375 0.1875 0
0.125 0.1875 0
0 0.1875 0
0.03125 0.1875 0
0 0.21875 0
0.03125 0.21875 0
0.03125 0.1875 0
0.0625 0.1875 0
0.03125 0.21875 0
0.0625 0.21875 0
0 0.21875 0
0.03125 0.21875 0
0 0.25 0
0.03125 0.25 0
0.03125 0.21875 0
0.0625 0.21875 0
0.03125 0.25 0
0.0625 0.25 0
0.0625 0.1875 0
0.09375 0.1875 0
0.0625 0.21875 0
0.09375 0.21875 0
0.09375 0.1875 0
0.125 0.1875 0
0.09375 0.21875 0
0.125 0.21875 0
0.0625 0.21875 0
0.09375 0.21875 0
0.0625 0.25 0
0.09375 0.25 0
0.09375 0.21875 0
0.125 0.21875 0
0.09375 0.25 0
0.125 0.25 0
0.125 0.125 0
0.15625 0.125 0
0.125 0.15625 0
0.15625 0.15625 0
0.15625 0.125 0
0.1875 0.125 0
0.15625 0.15625 0
0.1875 0.15625 0
0.125 0.15625 0
0.15625 0.15625 0
0.125 0.1875 0
0.15625 0.1875 0
0.15625 0.15625 0
0.1875 0.15625 0
0.15625 0.1875 0
0.1875 0.1875 0
0.1875 0.125 0
0.21875 0.125 0
0.1875 0.15625 0
0.21875 0.15625 0
0.21875 0.125 0
0.25 0.125 0
0.21875 0.15625 0
0.25 0.15625 0
0.1875 0.15625 0
0.21875 0.15625 0
0.1875 0.1875 0
0.21875 0.1875 0
0.21875 0.15625 0
0.25 0.15625 0
0.21875 0.1875 0
0.25 0.1875 0
0.125 0.1875 0
0.15625 0.1875 0
0.125 0.21875 0
0.15625 0.21875 0
0.15625 0.1875 0
0.1875 0.1875 0
0.15625 0.21875 0
0.1875 0.21875 0
0.125 0.21875 0
0.15625 0.21875 0
0.125 0.25 0
0.15625 0.25 0
0.15625 0.21875 0
0.1875 0.21875 0
0.15625 0.25 0
0.1875 0.25 0
0.1875 0.1875 0
0.21875 0.1875 0
0.1875 0.21875 0
0.21875 0.21875 0
0.21875 0.1875 0
0.25 0.1875 0
0.21875 0.21875 0
0.25 0.21875 0
0.1875 0.21875 0
0.21875 0.21875 0
0.1875 0.25 0
0.21875 0.25 0
0.21875 0.21875 0
0.25 0.21875 0
0.21875 0.25 0
0.25 0.25 0
0.25 0 0
0.28125 0 0
0.25 0.03125 0
0.28125 0.03125 0
0.28125 0 0
0.3125 0 0
0.28125 0.03125 0
0.3125 0.03125 0
0.25 0.03125 0
0.28125 0.03125 0
0.25 0.0625 0
0.28125 0.0625 0
0.28125 0.03125 0
0.3125 0.03125 0
0.28125 0.0625 0
0.3125 0.0625 0
0.3125 0 0
0.34375 0 0
0.3125 0.03125 0
0.34375 0.03125 0
0.34375 0 0
0.375 0 0
0.34375 0.03125 0
0.375 0.03125 0
0.3125 0.03125 0
0.34375 0.03125 0
0.3125 0.0625 0
0.34375 0.0625 0
0.34375 0.03125 0
0.375 0.03125 0
0.34375 0.0625 0
0.375 0.0625 0
0.25 0.0625 0
0.28125 0.0625 0
0.25 0.09375 0
0.28125 0.09375 0
0.28125 0.0625 0
0.3125 0.0625 0
0.28125 0.09375 0
0.3125 0.09375 0
0.25 0.09375 0
0.28125 0.09375 0
0.25 0.125 0
0.28125 0.125 0
0.28125 0.09375 0
0.3125 0.09375 0
0.28125 0.125 0
0.3125 0.125 0
0.3125 0.0625 0
0.34375 0.0625 0
0.3125 0.09375 0
0.34375 0.09375 0
0.34375 0.0625 0
0.375 0.0625 0
0.34375 0.09375 0
0.375 0.09375 0
0.3125 0.09375 0
0.34375 0.09375 0
0.3125 0.125 0
0.34375 0.125 0
0.34375 0.09375 0
0.375 0.09375 0
0.34375 0.125 0
0.375 0.125 0
0.375 0 0
0.40625 0 0
0.375 0.03125 0
0.40625 0.03125 0
0.40625 0 0
0.4375 0 0
0.40625 0.03125 0
0.4375 0.03125 0
0.375 0.03125 0
0.40625 0.03125 0
0.375 0.0625 0
0.40625 0.0625 0
0.40625 0.03125 0
0.4375 0.03125 0
0.40625 0.0625 0
0.4375 0.0625 0
0.4375 0 0
0.46875 0 0
0.4375 0.03125 0
0.46875 0.03125 0
0.46875 0 0
0.5 0 0
0.46875 0.03125 0
0.5 0.03125 0
0.4375 0.03125 0
0.46875 0.03125 0
0.4375 0.0625 0
0.46875 0.0625 0
0.46875 0.03125 0
0.5 0.03125 0
0.46875 0.0625 0
0.5 0.0625 0
0.375 0.0625 0
0.40625 0.0625 0
0.375 0.09375 0
0.40625 0.09375 0
0.40625 0.0625 0
0.4375 0.0625 0
0.40625 0.09375 0
0.4375 0.09375 0
0.375 0.09375 0
0.40625 0.09375 0
0.375 0.125 0
0.40625 0.125 0
0.40625 0.09375 0
0.4375 0.09375 0
0.40625 0.125 0
0.4375 0.125 0
0.4375 0.0625 0
0.46875 0.0625 0
0.4375 0.09375 0
0.46875 0.09375 0
0.46875 0.0625 0
0.5 0.0625 0
0.46875 0.09375 0
0.5 0.09375 0
0.4375 0.09375 0
0.46875 0.09375 0
0.4375 0.125 0
0.46875 0.125 0
0.46875 0.09375 0
0.5 0.09375 0
0.46875 0.125 0
0.5 0.125 0
0.25 0.125 0
0.28125 0.125 0
0.25 0.15625 0
0.28125 0.15625 0
0.28125 0.125 0
0.3125 0.125 0
0.28125 0.15625 0
0.3125 0.15625 0
0.25 0.15625 0
0.28125 0.15625 0
0.25 0.1875 0
0.28125 0.1875 0
0.28125 0.15625 0
0.3125 0.15625 0
0.28125 0.1875 0
0.3125 0.1875 0
0.3125 0.125 0
0.34375 0.125 0
0.3125 0.15625 0
0.34375 0.15625 0
0.34375 0.125 0
0.375 0.125 0
0.34375 0.15625 0
0.375 0.15625 0
0.3125 0.15625 0
0.34375 0.15625 0
0.3125 0.1875 0
0.34375 0.1875 0
0.34375 0.15625 0
0.375 0.15625 0
0.34375 0.1875 0
0.375 0.1875 0
0.25 0.1875 0
0.28125 0.1875 0
0.25 0.21875 0
0.28125 0.21875 0
0.28125 0.1875 0
0.3125 0.1875 0
0.28125 0.21875 0
0.3125 0.21875 0
0.25 0.21875 0
0.28125 0.21875 0
0.25 0.25 0
0.28125 0.25 0
0.28125 0.21875 0
0.3125 0.21875 0
0.28125 0.25 0
0.3125 0.25 0
0.3125 0.1875 0
0.34375 0.1875 0
0.3125 0.21875 0
0.34375 0.21875 0
0.34375 0.1875 0
0.375 0.1875 0
0.34375 0.21875 0
0.375 0.21875 0
0.3125 0.21875 0
0.34375 0.21875 0
0.3125 0.25 0
0.34375 0.25 0
0.34375 0.21875 0
0.375 0.21875 0
0.34375 0.25 0
0.375 0.25 0
0.375 0.125 0
0.40625 0.125 0
0.375 0.15625 0
0.40625 0.15625 0
0.40625 0.125 0
0.4375 0.125 0
0.40625 0.15625 0
0.4375 0.15625 0
0.375 0.15625 0
0.40625 0.15625 0
0.375 0.1875 0
0.40625 0.1875 0
0.40625 0.15625 0
0.4375 0.15625 0
0.40625 0.1875 0
0.4375 0.1875 0
0.4375 0.125 0
0.46875 0.125 0
0.4375 0.15625 0
0.46875 0.15625 0
0.46875 0.125 0
0.5 0.125 0
0.46875 0.15625 0
0.5 0.15625 0
0.4375 0.15625 0
0.46875 0.15625 0
0.4375 0.1875 0
0.46875 0.1875 0
0.46875 0.15625 0
0.5 0.15625 0
0.46875 0.1875 0
0.5 0.1875 0
0.375 0.1875 0
0.40625 0.1875 0
0.375 0.21875 0
0.40625 0.21875 0
0.40625 0.1875 0
0.4375 0.1875 0
0.40625 0.21875 0
0.4375 0.21875 0
0.375 0.21875 0
0.40625 0.21875 0
0.375 0.25 0
0.40625 0.25 0
0.40625 0.21875 0
0.4375 0.21875 0
0.40625 0.25 0
0.4375 0.25 0
0.4375 0.1875 0
0.46875 0.1875 0
0.4375 0.21875 0
0.46875 0.21875 0
0.46875 0.1875 0
0.5 0.1875 0
0.46875 0.21875 0
0.5 0.21875 0
0.4375 0.21875 0
0.46875 0.21875 0
0.4375 0.25 0
0.46875 0.25 0
0.46875 0.21875 0
0.5 0.21875 0
0.46875 0.25 0
0.5 0.25 0
0 0.25 0
0.03125 0.25 0
0 0.28125 0
0.03125 0.28125 0
0.03125 0.25 0
0.0625 0.25 0
0.03125 0.28125 0
0.0625 0.28125 0
0 0.28125 0
0.03125 0.28125 0
0 0.3125 0
0.03125 0.3125 0
0.03125 0.28125 0
0.0625 0.28125 0
0.03125 0.3125 0
0.0625 0.3125 0
0.0625 0.25 0
0.09375 0.25 0
0.0625 0.28125 0
0.09375 0.28125 0
0.09375 0.25 0
0.125 0.25 0
0.09375 0.28125 0
0.125 0.28125 0
0.0625 0.28125 0
0.09375 0.28125 0
0.0625 0.3125 0
0.09375 0.3125 0
0.09375 0.28125 0
0.125 0.28125 0
0.09375 0.3125 0
0.125 0.3125 0
0 0.3125 0
0.03125 0.3125 0
0 0.34375 0
0.03125 0.34375 0
0.03125 0.3125 0
0.0625 0.3125 0
0.03125 0.34375 0
0.0625 0.34375 0
0 0.34375 0
0.03125 0.34375 0
0 0.375 0
0.03125 0.375 0
0.03125 0.34375 0
0.0625 0.34375 0
0.03125 0.375 0
0.0625 0.375 0
0.0625 0.3125 0
0.09375 0.3125 0
0.0625 0.34375 0
0.09375 0.34375 0
0.09375 0.3125 0
0.125 0.3125 0
0.09375 0.34375 0
0.125 0.34375 0
0.0625 0.34375 0
0.09375 0.34375 0
0.0625 0.375 0
0.09375 0.375 0
0.09375 0.34375 0
0.125 0.34375 0
0.09375 0.375 0
0.125 0.375 0
0.125 0.25 0
0.15625 0.25 0
0.125 0.28125 0
0.15625 0.28125 0
0.15625 0.25 0
0.1875 0.25 0
0.15625 0.28125 0
0.1875 0.28125 0
0.125 0.28125 0
0.15625 0.28125 0
0.125 0.3125 0
0.15625 0.3125 0
0.15625 0.28125 0
0.1875 0.28125 0
0.15625 0.3125 0
0.1875 0.3125 0
0.1875 0.25 0
0.21875 0.25 0
0.1875 0.28125 0
0.21875 0.28125 0
0.21875 0.25 0
0.25 0.25 0
0.21875 0.28125 0
0.25 0.28125 0
0.1875 0.28125 0
0.21875 0.28125 0
0.1875 0.3125 0
0.21875 0.3125 0
0.21875 0.28125 0
0.25 0.28125 0
0.21875 0.3125 0
0.25 0.3125 0
0.125 0.3125 0
0.15625 0.3125 0
0.125 0.34375 0
0.15625 0.34375 0
0.15625 0.3125 0
0.1875 0.3125 0
0.15625 0.34375 0
0.1875 0.34375 0
0.125 0.34375 0
[...]
POINT_DATA 4096
SCALARS p double 1
LOOKUP_TABLE default
-1.68346e-07 0.000122356 -0.000122949 -1.6403e-08 0.000122356 0.000337777 -1.6403e-08 9.97131e-05 -0.000122949 -1.6403e-08 -0.00034109 -9.91063e-05 -1.6403e-08 9.97131e-05 -9.91063e-05 2.90539e-06 0.000337777 0.000435269 9.97131e-05 0.000128528 0.000435269 0.000348847 0.000128528 3.39804e-05 9.97131e-05 0.000128528 2.90539e-06 1.76163e-05 0.000128528 3.39804e-05 1.76163e-05 -0.000101576 -0.00034109 -9.91063e-05 -0.000446637 -0.000127233 -9.91063e-05 2.90539e-06 -0.000127233 -4.17472e-06 -0.000446637 -0.000127233 -0.000372699 -2.97039e-05 -0.000127233 -4.17472e-06 -2.97039e-05 0.000128379 2.90539e-06 1.76163e-05 -4.17472e-06 1.39505e-05 1.76163e-05 -0.000101576 1.39505e-05 -0.000107048 -4.17472e-06 1.39505e-05 0.000128379 0.000155145 1.39505e-05 -0.000107048 0.000155145 3.57494e-05 0.000348847 7.0091e-05 3.39804e-05 -0.000196913 7.0091e-05 -0.000390178 -0.000196913 -0.000564723 3.39804e-05 -0.000196913 -0.000101576 -0.000361011 -0.000196913 -0.000564723 -0.000361011 -0.0007637 -0.000390178 -0.00101865 -0.000564723 -0.00106386 -0.00101865 -0.0018028 -0.00106386 -0.0016866 -0.000564723 -0.00106386 -0.0007637 -0.00130604 -0.00106386 -0.0016866 -0.00130604 -0.00198142 -0.000101576 -0.000361011 -0.000107048 -0.000364749 -0.000361011 -0.0007637 -0.000364749 -0.000760582 -0.000107048 -0.000364749 3.57494e-05 -0.000225254 -0.000364749 -0.000760582 -0.000225254 -0.000626535 -0.0007637 -0.00130604 -0.000760582 -0.00129142 -0.00130604 -0.00198142 -0.00129142 -0.00195159 -0.000760582 -0.00129142 -0.000626535 -0.00116435 -0.00129142 -0.00195159 -0.00116435 -0.00183296 -0.000372699 -2.97039e-05 -0.000105328 0.00021156 -2.97039e-05 0.000128379 0.00021156 0.000413071 -0.000105328 0.00021156 0.000354292 0.000605162 0.00021156 0.000413071 0.000605162 0.000861921 0.000128379 0.000155145 0.000413071 0.000445192 0.000155145 3.57494e-05 0.000445192 0.000328875 0.000413071 0.000445192 0.000861921 0.000894408 0.000445192 0.000328875 0.000894408 0.000779875 0.000354292 0.000605162 0.00100637 0.00115662 0.000605162 0.000861921 0.00115662 0.00148358 0.00100637 0.00115662 0.00185589 0.00187269 0.00115662 0.00148358 0.00187269 0.00228736 0.000861921 0.000894408 0.00148358 0.00151166 0.000894408 0.000779875 0.00151166 0.00139697 0.00148358 0.00151166 0.00228736 0.00230688 0.00151166 0.00139697 0.00230688 0.00218999 3.57494e-05 -0.000225254 0.000328875 6.41475e-05 -0.000225254 -0.000626535 6.41475e-05 -0.000344902 0.000328875 6.41475e-05 0.000779875 0.000508149 6.41475e-05 -0.000344902 0.000508149 8.61853e-05 -0.000626535 -0.00116435 -0.000344902 -0.000893928 -0.00116435 -0.00183296 -0.000893928 -0.0015768 -0.000344902 -0.000893928 8.61853e-05 -0.000481347 -0.000893928 -0.0015768 -0.000481347 -0.00118779 0.000779875 0.000508149 0.00139697 0.00111432 0.000508149 8.61853e-05 0.00111432 0.00067395 0.00139697 0.00111432 0.00218999 0.00189198 0.00111432 0.00067395 0.00189198 0.00142712 8.61853e-05 -0.000481347 0.00067395 8.05722e-05 -0.000481347 -0.00118779 8.05722e-05 -0.000658562 0.00067395 8.05722e-05 0.00142712 0.000799974 8.05722e-05 -0.000658562 0.000799974 1.8444e-05 -0.0018028 -0.00273054 -0.0016866 -0.00242414 -0.00273054 -0.00378937 -0.00242414 -0.00326671 -0.0016866 -0.00242414 -0.00198142 -0.00278116 -0.00242414 -0.00326671 -0.00278116 -0.0036951 -0.00378937 -0.00496573 -0.00326671 -0.00420354 -0.00496573 -0.00624482 -0.00420354 -0.00522278 -0.00326671 -0.00420354 -0.0036951 -0.00471169 -0.00420354 -0.00522278 -0.00471169 -0.00581811 -0.00198142 -0.00278116 -0.00195159 -0.00273327 -0.00278116 -0.0036951 -0.00273327 -0.00362691 -0.00195159 -0.00273327 -0.00183296 -0.00262467 -0.00273327 -0.00362691 -0.00262467 -0.00353004 -0.0036951 -0.00471169 -0.00362691 -0.00462143 -0.00471169 -0.00581811 -0.00462143 -0.00570446 -0.00362691 -0.00462143 -0.00353004 -0.00453807 -0.00462143 -0.00570446 -0.00453807 -0.00563634 -0.00624482 -0.00761054 -0.00522278 -0.00631151 -0.00761054 -0.00904554 -0.00631151 -0.0074558 -0.00522278 -0.00631151 -0.00581811 -0.00700034 -0.00631151 -0.0074558 -0.00700034 -0.00824324 -0.00904554 -0.0105313 -0.0074558 -0.00864085 -0.0105313 -0.0120485 -0.00864085 -0.00985106 -0.0074558 -0.00864085 -0.00824324 -0.00953069 -0.00864085 -0.00985106 -0.00953069 -0.0108457 -0.00581811 -0.00700034 -0.00570446 -0.00686232 -0.00700034 -0.00824324 -0.00686232 -0.00808025 -0.00570446 -0.00686232 -0.00563634 -0.00681112 -0.00686232 -0.00808025 -0.00681112 -0.00804751 -0.00824324 -0.00953069 -0.00808025 -0.00934245 -0.00953069 -0.0108457 -0.00934245 -0.0106323 -0.00808025 -0.00934245 -0.00804751 -0.00932956 -0.00934245 -0.0106323 -0.00932956 -0.0106404 -0.00183296 -0.00262467 -0.0015768 -0.00238567 -0.00262467 -0.00353004 -0.00238567 -0.00331104 -0.0015768 -0.00238567 -0.00118779 -0.00202498 -0.00238567 -0.00331104 -0.00202498 -0.00298313 -0.00353004 -0.00453807 -0.00331104 -0.0043418 -0.00453807 -0.00563634 -0.0043418 -0.00546541 -0.00331104 -0.0043418 -0.00298313 -0.00405087 -0.0043418 -0.00546541 -0.00405087 -0.00521535 -0.00118779 -0.00202498 -0.000658562 -0.00153488 -0.00202498 -0.00298313 -0.00153488 -0.00253818 -0.000658562 -0.00153488 1.8444e-05 -0.000908401 -0.00153488 -0.00253818 -0.000908401 -0.00196979 -0.00298313 -0.00405087 -0.00253818 -0.00365664 -0.00405087 -0.00521535 -0.00365664 -0.00487701 -0.00253818 -0.00365664 -0.00196979 -0.00315337 -0.00365664 -0.00487701 -0.00315337 -0.00444528 -0.00563634 -0.00681112 -0.00546541 -0.00666796 -0.00681112 -0.00804751 -0.00666796 -0.00793436 -0.00546541 -0.00666796 -0.00521535 -0.00646235 -0.00666796 -0.00793436 -0.00646235 -0.00777639 -0.00804751 -0.00932956 -0.00793436 -0.00924837 -0.00932956 -0.0106404 -0.00924837 -0.0105928 -0.00793436 -0.00924837 -0.00777639 -0.00914079 -0.00924837 -0.0105928 -0.00914079 -0.0105379 -0.00521535 -0.00646235 -0.00487701 -0.00618455 -0.00646235 -0.00777639 -0.00618455 -0.00756328 -0.00487701 -0.00618455 -0.00444528 -0.00583019 -0.00618455 -0.00756328 -0.00583019 -0.00729143 -0.00777639 -0.00914079 -0.00756328 -0.00899593 -0.00914079 -0.0105379 -0.00899593 -0.0104642 -0.00756328 -0.00899593 -0.00729143 -0.00881105 -0.00899593 -0.0104642 -0.00881105 -0.0103699 0.00185589 0.00187269 0.00291262 0.00276259 0.00187269 0.00228736 0.00276259 0.00328455 0.00291262 0.00276259 0.00419043 0.0038384 0.00276259 0.00328455 0.0038384 0.00448912 0.00228736 0.00230688 0.00328455 0.00329174 0.00230688 0.00218999 0.00329174 0.0031707 0.00328455 0.00329174 0.00448912 0.00448041 0.00329174 0.0031707 0.00448041 0.00435336 0.00419043 0.0038384 0.00570696 0.00511522 0.0038384 0.00448912 0.00511522 0.00591827 0.00570696 0.00511522 0.0074836 0.00661137 0.00511522 0.00591827 0.00661137 0.00759272 0.00448912 0.00448041 0.00591827 0.00589004 0.00448041 0.00435336 0.00589004 0.00575507 0.00591827 0.00589004 0.00759272 0.00754118 0.00589004 0.00575507 0.00754118 0.00739627 0.00218999 0.00189198 0.0031707 0.00285266 0.00189198 0.00142712 0.00285266 0.00235678 0.0031707 0.00285266 0.00435336 0.00401031 0.00285266 0.00235678 0.00401031 0.00347644 0.00142712 0.000799974 0.00235678 0.00168743 0.000799974 1.8444e-05 0.00168743 0.000853269 0.00235678 0.00168743 0.00347644 0.00275587 0.00168743 0.000853269 0.00275587 0.00185815 0.00435336 0.00401031 0.00575507 0.00538169 0.00401031 0.00347644 0.00538169 0.00480224 0.00575507 0.00538169 0.00739627 0.00698667 0.00538169 0.00480224 0.00698667 0.00635332 0.00347644 0.00275587 0.00480224 0.00402069 0.00275587 0.00185815 0.00402069 0.00304771 0.00480224 0.00402069 0.00635332 0.00550009 0.00402069 0.00304771 0.00550009 0.00443911 0.0074836 0.00661137 0.00954586 0.00834879 0.00661137 0.00759272 0.00834879 0.00953731 0.00954586 0.00834879 0.0119239 0.0103536 0.00834879 0.00953731 0.0103536 0.0117816 0.00759272 0.00754118 0.00953731 0.00945839 0.00754118 0.00739627 0.00945839 0.0093012 0.00953731 0.00945839 0.0117816 0.0116709 0.00945839 0.0093012 0.0116709 0.0114986 0.0119239 0.0103536 0.0146534 0.0126569 0.0103536 0.0117816 0.0126569 0.0143611 0.0146534 0.0126569 0.0177767 0.015296 0.0126569 0.0143611 0.015296 0.0173181 0.0117816 0.0116709 0.0143611 0.0142135 0.0116709 0.0114986 0.0142135 0.0140225 0.0143611 0.0142135 0.0173181 0.0171279 0.0142135 0.0140225 0.0171279 0.0169135 0.00739627 0.00698667 0.0093012 0.00884874 0.00698667 0.00635332 0.00884874 0.00815212 0.0093012 0.00884874 0.0114986 0.0109955 0.00884874 0.00815212 0.0109955 0.0102249 0.00635332 0.00550009 0.00815212 0.00721531 0.00550009 0.00443911 0.00721531 0.00605224 0.00815212 0.00721531 0.0102249 0.00919091 0.00721531 0.00605224 0.00919091 0.00790997 0.0114986 0.0109955 0.0140225 0.0134596 0.0109955 0.0102249 0.0134596 0.0126021 0.0140225 0.0134596 0.0169135 0.0162792 0.0134596 0.0126021 0.0162792 0.0153193 0.0102249 0.00919091 0.0126021 0.0114552 0.00919091 0.00790997 0.0114552 0.0100384 0.0126021 0.0114552 0.0153193 0.0140408 0.0114552 0.0100384 0.0140408 0.0124669 1.8444e-05 -0.000908401 0.000853269 -0.00013604 -0.000908401 -0.00196979 -0.00013604 -0.00126904 0.000853269 -0.00013604 0.00185815 0.00079374 -0.00013604 -0.00126904 0.00079374 -0.000425111 -0.00196979 -0.00315337 -0.00126904 -0.00253269 -0.00315337 -0.00444528 -0.00253269 -0.00391241 -0.00126904 -0.00253269 -0.000425111 -0.00178453 -0.00253269 -0.00391241 -0.00178453 -0.00326909 0.00185815 0.00079374 0.00304771 0.00189469 0.00079374 -0.000425111 0.00189469 0.000574869 0.00304771 0.00189469 0.00443911 0.00318289 0.00189469 0.000574869 0.00318289 0.00174591 -0.000425111 -0.00178453 0.000574869 -0.000896898 -0.00178453 -0.00326909 -0.000896898 -0.00250419 0.000574869 -0.000896898 0.00174591 0.000144182 -0.000896898 -0.00250419 0.000144182 -0.00160473 -0.00444528 -0.00583019 -0.00391241 -0.00539213 -0.00583019 -0.00729143 -0.00539213 -0.0069544 -0.00391241 -0.00539213 -0.00326909 -0.00486185 -0.00539213 -0.0069544 -0.00486185 -0.00654448 -0.00729143 -0.00881105 -0.0069544 -0.00858042 -0.00881105 -0.0103699 -0.00858042 -0.0102501 -0.0069544 -0.00858042 -0.00654448 -0.00829727 -0.00858042 -0.0102501 -0.00829727 -0.0100992 -0.00326909 -0.00486185 -0.00250419 -0.0042291 -0.00486185 -0.00654448 -0.0042291 -0.00605236 -0.00250419 -0.0042291 -0.00160473 -0.0034819 -0.0042291 -0.00605236 -0.0034819 -0.00546701 -0.00654448 -0.00829727 -0.00605236 -0.00795325 -0.00829727 -0.0100992 -0.00795325 -0.00990968 -0.00605236 -0.00795325 -0.00546701 -0.00753835 -0.00795325 -0.00990968 -0.00753835 -0.00967281 0.00443911 0.00318289 0.00605224 0.00467691 0.00318289 0.00174591 0.00467691 0.00310528 0.00605224 0.00467691 0.00790997 0.00639791 0.00467691 0.00310528 0.00639791 0.00467253 0.00174591 0.000144182 0.00310528 0.00135475 0.000144182 -0.00160473 0.00135475 -0.000555826 0.00310528 0.00135475 0.00467253 0.00275292 0.00135475 -0.000555826 0.00275292 0.000659378 0.00790997 0.00639791 0.0100384 0.00836978 0.00639791 0.00467253 0.00836978 0.00646956 0.0100384 0.00836978 0.0124669 0.0106192 0.00836978 0.00646956 0.0106192 0.00852049 0.00467253 0.00275292 0.00646956 0.00435884 0.00275292 0.000659378 0.00435884 0.00205959 0.00646956 0.00435884 0.00852049 0.00619451 0.00435884 0.00205959 0.00619451 0.00366517 -0.00160473 -0.0034819 -0.000555826 -0.00260637 -0.0034819 -0.00546701 -0.00260637 -0.00477554 -0.000555826 -0.00260637 0.000659378 -0.00158678 -0.00260637 -0.00477554 -0.00158678 -0.00396319 -0.00546701 -0.00753835 -0.00477554 -0.00704069 -0.00753835 -0.00967281 -0.00704069 -0.00937777 -0.00477554 -0.00704069 -0.00396319 -0.0064464 -0.00704069 -0.00937777 -0.0064464 -0.0090116 0.000659378 -0.00158678 0.00205959 -0.000405544 -0.00158678 -0.00396319 -0.000405544 -0.00301327 0.00205959 -0.000405544 0.00366517 0.000956503 -0.000405544 -0.00301327 0.000956503 -0.00190734 -0.00396319 -0.0064464 -0.00301327 -0.0057395 -0.0064464 -0.0090116 -0.0057395 -0.00855899 -0.00301327 -0.0057395 -0.00190734 -0.00490193 -0.0057395 -0.00855899 -0.00490193 -0.0080021 -0.0120485 -0.0135769 -0.00985106 -0.0110702 -0.0135769 -0.0150956 -0.0110702 -0.0122816 -0.00985106 -0.0110702 -0.0108457 -0.0121706 -0.0110702 -0.0122816 -0.0121706 -0.0134871 -0.0150956 -0.0165837 -0.0122816 -0.0134683 -0.0165837 -0.0180198 -0.0134683 -0.0146133 -0.0122816 -0.0134683 -0.0134871 -0.0147769 -0.0134683 -0.0146133 -0.0147769 -0.0160212 -0.0108457 -0.0121706 -0.0106323 -0.0119323 -0.0121706 -0.0134871 -0.0119323 -0.0132247 -0.0106323 -0.0119323 -0.0106404 -0.0119624 -0.0119323 -0.0132247 -0.0119624 -0.0132774 -0.0134871 -0.0147769 -0.0132247 -0.0144912 -0.0147769 -0.0160212 -0.0144912 -0.0157136 -0.0132247 -0.0144912 -0.0132774 -0.0145668 -0.0144912 -0.0157136 -0.0145668 -0.0158118 -0.0180198 -0.019383 -0.0146133 -0.0156997 -0.019383 -0.0206527 -0.0156997 -0.0167111 -0.0146133 -0.0156997 -0.0160212 -0.0172017 -0.0156997 -0.0167111 -0.0172017 -0.0183006 -0.0206527 -0.0218092 -0.0167111 -0.0176316 -0.0218092 -0.0228338 -0.0176316 -0.0184465 -0.0167111 -0.0176316 -0.0183006 -0.0193006 -0.0176316 -0.0184465 -0.0193006 -0.0201857 -0.0160212 -0.0172017 -0.0157136 -0.0168735 -0.0172017 -0.0183006 -0.0168735 -0.0179535 -0.0157136 -0.0168735 -0.0158118 -0.016994 -0.0168735 -0.0179535 -0.016994 -0.0180952 -0.0183006 -0.0193006 -0.0179535 -0.0189364 -0.0193006 -0.0201857 -0.0189364 -0.0198066 -0.0179535 -0.0189364 -0.0180952 -0.019098 -0.0189364 -0.0198066 -0.019098 -0.0199862 -0.0106404 -0.0119624 -0.0105928 -0.0119497 -0.0119624 -0.0132774 -0.0119497 -0.0133004 -0.0105928 -0.0119497 -0.0105379 -0.0119491 -0.0119497 -0.0133004 -0.0119491 -0.0133552 -0.0132774 -0.0145668 -0.0133004 -0.0146259 -0.0145668 -0.0158118 -0.0146259 -0.0159068 -0.0133004 -0.0146259 -0.0133552 -0.0147363 -0.0146259 -0.0159068 -0.0147363 -0.0160724 -0.0105379 -0.0119491 -0.0104642 -0.0119488 -0.0119491 -0.0133552 -0.0119488 -0.0134295 -0.0104642 -0.0119488 -0.0103699 -0.0119478 -0.0119488 -0.0134295 -0.0119478 -0.0135236 -0.0133552 -0.0147363 -0.0134295 -0.0148856 -0.0147363 -0.0160724 -0.0148856 -0.0162959 -0.0134295 -0.0148856 -0.0135236 -0.0150752 -0.0148856 -0.0162959 -0.0150752 -0.0165803 -0.0158118 -0.016994 -0.0159068 -0.0171239 -0.016994 -0.0180952 -0.0171239 -0.0182586 -0.0159068 -0.0171239 -0.0160724 -0.0173432 -0.0171239 -0.0182586 -0.0173432 -0.018529 -0.0180952 -0.019098 -0.0182586 -0.0192926 -0.019098 -0.0199862 -0.0192926 -0.020209 -0.0182586 -0.0192926 -0.018529 -0.0196107 -0.0192926 -0.020209 -0.0196107 -0.0205703 -0.0160724 -0.0173432 -0.0162959 -0.0176391 -0.0173432 -0.018529 -0.0176391 -0.0188939 -0.0162959 -0.0176391 -0.0165803 -0.0180159 -0.0176391 -0.0188939 -0.0180159 -0.0193592 -0.018529 -0.0196107 -0.0188939 -0.02004 -0.0196107 -0.0205703 -0.02004 -0.0210577 -0.0188939 -0.02004 -0.0193592 -0.0205878 -0.02004 -0.0210577 -0.0205878 -0.0216803 -0.0228338 -0.0237089 -0.0184465 -0.0191416 -0.0237089 -0.0244171 -0.0191416 -0.0197052 -0.0184465 -0.0191416 -0.0201857 -0.0209409 -0.0191416 -0.0197052 -0.0209409 -0.0215542 -0.0244171 -0.0249443 -0.0197052 -0.0201223 -0.0249443 -0.0252623 -0.0201223 -0.0204075 -0.0197052 -0.0201223 -0.0215542 -0.022012 -0.0201223 -0.0204075 -0.022012 -0.0223261 -0.0201857 -0.0209409 -0.0198066 -0.0205496 -0.0209409 -0.0215542 -0.0205496 -0.0211538 -0.0198066 -0.0205496 -0.0199862 -0.020745 -0.0205496 -0.0211538 -0.020745 -0.0213626 -0.0215542 -0.022012 -0.0211538 -0.0216063 -0.022012 -0.0223261 -0.0216063 -0.0219203 -0.0211538 -0.0216063 -0.0213626 -0.0218257 -0.0216063 -0.0219203 -0.0218257 -0.0221462 -0.0252623 -0.0254194 -0.0204075 -0.0204461 -0.0254194 -0.0253363 -0.0204461 -0.0208488 -0.0204075 -0.0204461 -0.0223261 -0.0223996 -0.0204461 -0.0208488 -0.0223996 -0.0227896 -0.0253363 -0.0239055 -0.0208488 -0.0186877 -0.0239055 -0.0260872 -0.0186877 -0.0236513 -0.0208488 -0.0186877 -0.0227896 -0.0206496 -0.0186877 -0.0236513 -0.0206496 -0.0246431 -0.0223261 -0.0223996 -0.0219203 -0.021992 -0.0223996 -0.0227896 -0.021992 -0.0223976 -0.0219203 -0.021992 -0.0221462 -0.0222193 -0.021992 -0.0223976 -0.0222193 -0.022613 -0.0227896 -0.0206496 -0.0223976 -0.0202059 -0.0206496 -0.0246431 -0.0202059 -0.0245392 -0.0223976 -0.0202059 -0.022613 -0.0203922 -0.0202059 -0.0245392 -0.0203922 -0.0245817 -0.0199862 -0.020745 -0.020209 -0.0209925 -0.020745 -0.0213626 -0.0209925 -0.0216303 -0.020209 -0.0209925 -0.0205703 -0.0213911 -0.0209925 -0.0216303 -0.0213911 -0.0220594 -0.0213626 -0.0218257 -0.0216303 -0.0221083 -0.0218257 -0.0221462 -0.0221083 -0.0224376 -0.0216303 -0.0221083 -0.0220594 -0.0225599 -0.0221083 -0.0224376 -0.0225599 -0.0229029 -0.0205703 -0.0213911 -0.0210577 -0.021929 -0.0213911 -0.0220594 -0.021929 -0.0226387 -0.0210577 -0.021929 -0.0216803 -0.0226168 -0.021929 -0.0226387 -0.0226168 -0.0233801 -0.0220594 -0.0225599 -0.0226387 -0.02317 -0.0225599 -0.0229029 -0.02317 -0.0235326 -0.0226387 -0.02317 -0.0233801 -0.0239516 -0.02317 -0.0235326 -0.0239516 -0.0243408 -0.0221462 -0.0222193 -0.0224376 -0.0225099 -0.0222193 -0.022613 -0.0225099 -0.0228995 -0.0224376 -0.0225099 -0.0229029 -0.0229771 -0.0225099 -0.0228995 -0.0229771 -0.0233672 -0.022613 -0.0203922 -0.0228995 -0.0206295 -0.0203922 -0.0245817 -0.0206295 -0.0248708 -0.0228995 -0.0206295 -0.0233672 -0.0210402 -0.0206295 -0.0248708 -0.0210402 -0.0253442 -0.0229029 -0.0229771 -0.0235326 -0.0236116 -0.0229771 -0.0233672 -0.0236116 -0.0240079 -0.0235326 -0.0236116 -0.0243408 -0.024428 -0.0236116 -0.0240079 -0.024428 -0.0248351 -0.0233672 -0.0210402 -0.0240079 -0.0216078 -0.0210402 -0.0253442 -0.0216078 -0.0260143 -0.0240079 -0.0216078 -0.0248351 -0.0223441 -0.0216078 -0.0260143 -0.0223441 -0.0268845 -0.0103699 -0.0119478 -0.0102501 -0.0119423 -0.0119478 -0.0135236 -0.0119423 -0.0136346 -0.0102501 -0.0119423 -0.0100992 -0.0119278 -0.0119423 -0.0136346 -0.0119278 -0.0137594 -0.0135236 -0.0150752 -0.0136346 -0.0153037 -0.0150752 -0.0165803 -0.0153037 -0.0169254 -0.0136346 -0.0153037 -0.0137594 -0.0155693 -0.0153037 -0.0169254 -0.0155693 -0.0173313 -0.0100992 -0.0119278 -0.00990968 -0.0118981 -0.0119278 -0.0137594 -0.0118981 -0.0138934 -0.00990968 -0.0118981 -0.00967281 -0.0118457 -0.0118981 -0.0138934 -0.0118457 -0.0140305 -0.0137594 -0.0155693 -0.0138934 -0.0158691 -0.0155693 -0.0173313 -0.0158691 -0.0177972 -0.0138934 -0.0158691 -0.0140305 -0.0161991 -0.0158691 -0.0177972 -0.0161991 -0.0183213 -0.0165803 -0.0180159 -0.0169254 -0.0184751 -0.0180159 -0.0193592 -0.0184751 -0.0199279 -0.0169254 -0.0184751 -0.0173313 -0.0190188 -0.0184751 -0.0199279 -0.0190188 -0.0206043 -0.0193592 -0.0205878 -0.0199279 -0.0212591 -0.0205878 -0.0216803 -0.0212591 -0.022445 -0.0199279 -0.0212591 -0.0206043 -0.0220605 -0.0212591 -0.022445 -0.0220605 -0.0233605 -0.0173313 -0.0190188 -0.0177972 -0.0196485 -0.0190188 -0.0206043 -0.0196485 -0.0213927 -0.0177972 -0.0196485 -0.0183213 -0.0203652 -0.0196485 -0.0213927 -0.0203652 -0.0222971 -0.0206043 -0.0220605 -0.0213927 -0.0229991 -0.0220605 -0.0233605 -0.0229991 -0.0244371 -0.0213927 -0.0229991 -0.0222971 -0.0240823 -0.0229991 -0.0244371 -0.0240823 -0.0256859 -0.00967281 -0.0118457 -0.00937777 -0.011761 -0.0118457 -0.0140305 -0.011761 -0.0141628 -0.00937777 -0.011761 -0.0090116 -0.0116323 -0.011761 -0.0141628 -0.0116323 -0.0142798 -0.0140305 -0.0161991 -0.0141628 -0.0165532 -0.0161991 -0.0183213 -0.0165532 -0.0189 -0.0141628 -0.0165532 -0.0142798 -0.016923 -0.0165532 -0.0189 -0.016923 -0.0195274 -0.0090116 -0.0116323 -0.00855899 -0.0114449 -0.0116323 -0.0142798 -0.0114449 -0.0143682 -0.00855899 -0.0114449 -0.0080021 -0.0111813 -0.0114449 -0.0143682 -0.0111813 -0.0144107 -0.0142798 -0.016923 -0.0143682 -0.0172966 -0.016923 -0.0195274 -0.0172966 -0.0201941 -0.0143682 -0.0172966 -0.0144107 -0.017658 -0.0172966 -0.0201941 -0.017658 -0.0208863 -0.0183213 -0.0203652 -0.0189 -0.0211683 -0.0203652 -0.0222971 -0.0211683 -0.0233206 -0.0189 -0.0211683 -0.0195274 -0.0220552 -0.0211683 -0.0233206 -0.0220552 -0.024465 -0.0222971 -0.0240823 -0.0233206 -0.0253177 -0.0240823 -0.0256859 -0.0253177 -0.0271189 -0.0233206 -0.0253177 -0.024465 -0.026712 -0.0253177 -0.0271189 -0.026712 -0.0287487 -0.0195274 -0.0220552 -0.0201941 -0.0230203 -0.0220552 -0.024465 -0.0230203 -