# vtk DataFile Version 3.0
#This file was generated by the deal.II library on 2026/1/5 at 14:19:29
ASCII
DATASET UNSTRUCTURED_GRID

POINTS 4096 double
0 0 0
0.03125 0 0
0 0.03125 0
0.03125 0.03125 0
0.03125 0 0
0.0625 0 0
0.03125 0.03125 0
0.0625 0.03125 0
0 0.03125 0
0.03125 0.03125 0
0 0.0625 0
0.03125 0.0625 0
0.03125 0.03125 0
0.0625 0.03125 0
0.03125 0.0625 0
0.0625 0.0625 0
0.0625 0 0
0.09375 0 0
0.0625 0.03125 0
0.09375 0.03125 0
0.09375 0 0
0.125 0 0
0.09375 0.03125 0
0.125 0.03125 0
0.0625 0.03125 0
0.09375 0.03125 0
0.0625 0.0625 0
0.09375 0.0625 0
0.09375 0.03125 0
0.125 0.03125 0
0.09375 0.0625 0
0.125 0.0625 0
0 0.0625 0
0.03125 0.0625 0
0 0.09375 0
0.03125 0.09375 0
0.03125 0.0625 0
0.0625 0.0625 0
0.03125 0.09375 0
0.0625 0.09375 0
0 0.09375 0
0.03125 0.09375 0
0 0.125 0
0.03125 0.125 0
0.03125 0.09375 0
0.0625 0.09375 0
0.03125 0.125 0
0.0625 0.125 0
0.0625 0.0625 0
0.09375 0.0625 0
0.0625 0.09375 0
0.09375 0.09375 0
0.09375 0.0625 0
0.125 0.0625 0
0.09375 0.09375 0
0.125 0.09375 0
0.0625 0.09375 0
0.09375 0.09375 0
0.0625 0.125 0
0.09375 0.125 0
0.09375 0.09375 0
0.125 0.09375 0
0.09375 0.125 0
0.125 0.125 0
0.125 0 0
0.15625 0 0
0.125 0.03125 0
0.15625 0.03125 0
0.15625 0 0
0.1875 0 0
0.15625 0.03125 0
0.1875 0.03125 0
0.125 0.03125 0
0.15625 0.03125 0
0.125 0.0625 0
0.15625 0.0625 0
0.15625 0.03125 0
0.1875 0.03125 0
0.15625 0.0625 0
0.1875 0.0625 0
0.1875 0 0
0.21875 0 0
0.1875 0.03125 0
0.21875 0.03125 0
0.21875 0 0
0.25 0 0
0.21875 0.03125 0
0.25 0.03125 0
0.1875 0.03125 0
0.21875 0.03125 0
0.1875 0.0625 0
0.21875 0.0625 0
0.21875 0.03125 0
0.25 0.03125 0
0.21875 0.0625 0
0.25 0.0625 0
0.125 0.0625 0
0.15625 0.0625 0
0.125 0.09375 0
0.15625 0.09375 0
0.15625 0.0625 0
0.1875 0.0625 0
0.15625 0.09375 0
0.1875 0.09375 0
0.125 0.09375 0
0.15625 0.09375 0
0.125 0.125 0
0.15625 0.125 0
0.15625 0.09375 0
0.1875 0.09375 0
0.15625 0.125 0
0.1875 0.125 0
0.1875 0.0625 0
0.21875 0.0625 0
0.1875 0.09375 0
0.21875 0.09375 0
0.21875 0.0625 0
0.25 0.0625 0
0.21875 0.09375 0
0.25 0.09375 0
0.1875 0.09375 0
0.21875 0.09375 0
0.1875 0.125 0
0.21875 0.125 0
0.21875 0.09375 0
0.25 0.09375 0
0.21875 0.125 0
0.25 0.125 0
0 0.125 0
0.03125 0.125 0
0 0.15625 0
0.03125 0.15625 0
0.03125 0.125 0
0.0625 0.125 0
0.03125 0.15625 0
0.0625 0.15625 0
0 0.15625 0
0.03125 0.15625 0
0 0.1875 0
0.03125 0.1875 0
0.03125 0.15625 0
0.0625 0.15625 0
0.03125 0.1875 0
0.0625 0.1875 0
0.0625 0.125 0
0.09375 0.125 0
0.0625 0.15625 0
0.09375 0.15625 0
0.09375 0.125 0
0.125 0.125 0
0.09375 0.15625 0
0.125 0.15625 0
0.0625 0.15625 0
0.09375 0.15625 0
0.0625 0.1875 0
0.09375 0.1875 0
0.09375 0.15625 0
0.125 0.15625 0
0.09375 0.1875 0
0.125 0.1875 0
0 0.1875 0
0.03125 0.1875 0
0 0.21875 0
0.03125 0.21875 0
0.03125 0.1875 0
0.0625 0.1875 0
0.03125 0.21875 0
0.0625 0.21875 0
0 0.21875 0
0.03125 0.21875 0
0 0.25 0
0.03125 0.25 0
0.03125 0.21875 0
0.0625 0.21875 0
0.03125 0.25 0
0.0625 0.25 0
0.0625 0.1875 0
0.09375 0.1875 0
0.0625 0.21875 0
0.09375 0.21875 0
0.09375 0.1875 0
0.125 0.1875 0
0.09375 0.21875 0
0.125 0.21875 0
0.0625 0.21875 0
0.09375 0.21875 0
0.0625 0.25 0
0.09375 0.25 0
0.09375 0.21875 0
0.125 0.21875 0
0.09375 0.25 0
0.125 0.25 0
0.125 0.125 0
0.15625 0.125 0
0.125 0.15625 0
0.15625 0.15625 0
0.15625 0.125 0
0.1875 0.125 0
0.15625 0.15625 0
0.1875 0.15625 0
0.125 0.15625 0
0.15625 0.15625 0
0.125 0.1875 0
0.15625 0.1875 0
0.15625 0.15625 0
0.1875 0.15625 0
0.15625 0.1875 0
0.1875 0.1875 0
0.1875 0.125 0
0.21875 0.125 0
0.1875 0.15625 0
0.21875 0.15625 0
0.21875 0.125 0
0.25 0.125 0
0.21875 0.15625 0
0.25 0.15625 0
0.1875 0.15625 0
0.21875 0.15625 0
0.1875 0.1875 0
0.21875 0.1875 0
0.21875 0.15625 0
0.25 0.15625 0
0.21875 0.1875 0
0.25 0.1875 0
0.125 0.1875 0
0.15625 0.1875 0
0.125 0.21875 0
0.15625 0.21875 0
0.15625 0.1875 0
0.1875 0.1875 0
0.15625 0.21875 0
0.1875 0.21875 0
0.125 0.21875 0
0.15625 0.21875 0
0.125 0.25 0
0.15625 0.25 0
0.15625 0.21875 0
0.1875 0.21875 0
0.15625 0.25 0
0.1875 0.25 0
0.1875 0.1875 0
0.21875 0.1875 0
0.1875 0.21875 0
0.21875 0.21875 0
0.21875 0.1875 0
0.25 0.1875 0
0.21875 0.21875 0
0.25 0.21875 0
0.1875 0.21875 0
0.21875 0.21875 0
0.1875 0.25 0
0.21875 0.25 0
0.21875 0.21875 0
0.25 0.21875 0
0.21875 0.25 0
0.25 0.25 0
0.25 0 0
0.28125 0 0
0.25 0.03125 0
0.28125 0.03125 0
0.28125 0 0
0.3125 0 0
0.28125 0.03125 0
0.3125 0.03125 0
0.25 0.03125 0
0.28125 0.03125 0
0.25 0.0625 0
0.28125 0.0625 0
0.28125 0.03125 0
0.3125 0.03125 0
0.28125 0.0625 0
0.3125 0.0625 0
0.3125 0 0
0.34375 0 0
0.3125 0.03125 0
0.34375 0.03125 0
0.34375 0 0
0.375 0 0
0.34375 0.03125 0
0.375 0.03125 0
0.3125 0.03125 0
0.34375 0.03125 0
0.3125 0.0625 0
0.34375 0.0625 0
0.34375 0.03125 0
0.375 0.03125 0
0.34375 0.0625 0
0.375 0.0625 0
0.25 0.0625 0
0.28125 0.0625 0
0.25 0.09375 0
0.28125 0.09375 0
0.28125 0.0625 0
0.3125 0.0625 0
0.28125 0.09375 0
0.3125 0.09375 0
0.25 0.09375 0
0.28125 0.09375 0
0.25 0.125 0
0.28125 0.125 0
0.28125 0.09375 0
0.3125 0.09375 0
0.28125 0.125 0
0.3125 0.125 0
0.3125 0.0625 0
0.34375 0.0625 0
0.3125 0.09375 0
0.34375 0.09375 0
0.34375 0.0625 0
0.375 0.0625 0
0.34375 0.09375 0
0.375 0.09375 0
0.3125 0.09375 0
0.34375 0.09375 0
0.3125 0.125 0
0.34375 0.125 0
0.34375 0.09375 0
0.375 0.09375 0
0.34375 0.125 0
0.375 0.125 0
0.375 0 0
0.40625 0 0
0.375 0.03125 0
0.40625 0.03125 0
0.40625 0 0
0.4375 0 0
0.40625 0.03125 0
0.4375 0.03125 0
0.375 0.03125 0
0.40625 0.03125 0
0.375 0.0625 0
0.40625 0.0625 0
0.40625 0.03125 0
0.4375 0.03125 0
0.40625 0.0625 0
0.4375 0.0625 0
0.4375 0 0
0.46875 0 0
0.4375 0.03125 0
0.46875 0.03125 0
0.46875 0 0
0.5 0 0
0.46875 0.03125 0
0.5 0.03125 0
0.4375 0.03125 0
0.46875 0.03125 0
0.4375 0.0625 0
0.46875 0.0625 0
0.46875 0.03125 0
0.5 0.03125 0
0.46875 0.0625 0
0.5 0.0625 0
0.375 0.0625 0
0.40625 0.0625 0
0.375 0.09375 0
0.40625 0.09375 0
0.40625 0.0625 0
0.4375 0.0625 0
0.40625 0.09375 0
0.4375 0.09375 0
0.375 0.09375 0
0.40625 0.09375 0
0.375 0.125 0
0.40625 0.125 0
0.40625 0.09375 0
0.4375 0.09375 0
0.40625 0.125 0
0.4375 0.125 0
0.4375 0.0625 0
0.46875 0.0625 0
0.4375 0.09375 0
0.46875 0.09375 0
0.46875 0.0625 0
0.5 0.0625 0
0.46875 0.09375 0
0.5 0.09375 0
0.4375 0.09375 0
0.46875 0.09375 0
0.4375 0.125 0
0.46875 0.125 0
0.46875 0.09375 0
0.5 0.09375 0
0.46875 0.125 0
0.5 0.125 0
0.25 0.125 0
0.28125 0.125 0
0.25 0.15625 0
0.28125 0.15625 0
0.28125 0.125 0
0.3125 0.125 0
0.28125 0.15625 0
0.3125 0.15625 0
0.25 0.15625 0
0.28125 0.15625 0
0.25 0.1875 0
0.28125 0.1875 0
0.28125 0.15625 0
0.3125 0.15625 0
0.28125 0.1875 0
0.3125 0.1875 0
0.3125 0.125 0
0.34375 0.125 0
0.3125 0.15625 0
0.34375 0.15625 0
0.34375 0.125 0
0.375 0.125 0
0.34375 0.15625 0
0.375 0.15625 0
0.3125 0.15625 0
0.34375 0.15625 0
0.3125 0.1875 0
0.34375 0.1875 0
0.34375 0.15625 0
0.375 0.15625 0
0.34375 0.1875 0
0.375 0.1875 0
0.25 0.1875 0
0.28125 0.1875 0
0.25 0.21875 0
0.28125 0.21875 0
0.28125 0.1875 0
0.3125 0.1875 0
0.28125 0.21875 0
0.3125 0.21875 0
0.25 0.21875 0
0.28125 0.21875 0
0.25 0.25 0
0.28125 0.25 0
0.28125 0.21875 0
0.3125 0.21875 0
0.28125 0.25 0
0.3125 0.25 0
0.3125 0.1875 0
0.34375 0.1875 0
0.3125 0.21875 0
0.34375 0.21875 0
0.34375 0.1875 0
0.375 0.1875 0
0.34375 0.21875 0
0.375 0.21875 0
0.3125 0.21875 0
0.34375 0.21875 0
0.3125 0.25 0
0.34375 0.25 0
0.34375 0.21875 0
0.375 0.21875 0
0.34375 0.25 0
0.375 0.25 0
0.375 0.125 0
0.40625 0.125 0
0.375 0.15625 0
0.40625 0.15625 0
0.40625 0.125 0
0.4375 0.125 0
0.40625 0.15625 0
0.4375 0.15625 0
0.375 0.15625 0
0.40625 0.15625 0
0.375 0.1875 0
0.40625 0.1875 0
0.40625 0.15625 0
0.4375 0.15625 0
0.40625 0.1875 0
0.4375 0.1875 0
0.4375 0.125 0
0.46875 0.125 0
0.4375 0.15625 0
0.46875 0.15625 0
0.46875 0.125 0
0.5 0.125 0
0.46875 0.15625 0
0.5 0.15625 0
0.4375 0.15625 0
0.46875 0.15625 0
0.4375 0.1875 0
0.46875 0.1875 0
0.46875 0.15625 0
0.5 0.15625 0
0.46875 0.1875 0
0.5 0.1875 0
0.375 0.1875 0
0.40625 0.1875 0
0.375 0.21875 0
0.40625 0.21875 0
0.40625 0.1875 0
0.4375 0.1875 0
0.40625 0.21875 0
0.4375 0.21875 0
0.375 0.21875 0
0.40625 0.21875 0
0.375 0.25 0
0.40625 0.25 0
0.40625 0.21875 0
0.4375 0.21875 0
0.40625 0.25 0
0.4375 0.25 0
0.4375 0.1875 0
0.46875 0.1875 0
0.4375 0.21875 0
0.46875 0.21875 0
0.46875 0.1875 0
0.5 0.1875 0
0.46875 0.21875 0
0.5 0.21875 0
0.4375 0.21875 0
0.46875 0.21875 0
0.4375 0.25 0
0.46875 0.25 0
0.46875 0.21875 0
0.5 0.21875 0
0.46875 0.25 0
0.5 0.25 0
0 0.25 0
0.03125 0.25 0
0 0.28125 0
0.03125 0.28125 0
0.03125 0.25 0
0.0625 0.25 0
0.03125 0.28125 0
0.0625 0.28125 0
0 0.28125 0
0.03125 0.28125 0
0 0.3125 0
0.03125 0.3125 0
0.03125 0.28125 0
0.0625 0.28125 0
0.03125 0.3125 0
0.0625 0.3125 0
0.0625 0.25 0
0.09375 0.25 0
0.0625 0.28125 0
0.09375 0.28125 0
0.09375 0.25 0
0.125 0.25 0
0.09375 0.28125 0
0.125 0.28125 0
0.0625 0.28125 0
0.09375 0.28125 0
0.0625 0.3125 0
0.09375 0.3125 0
0.09375 0.28125 0
0.125 0.28125 0
0.09375 0.3125 0
0.125 0.3125 0
0 0.3125 0
0.03125 0.3125 0
0 0.34375 0
0.03125 0.34375 0
0.03125 0.3125 0
0.0625 0.3125 0
0.03125 0.34375 0
0.0625 0.34375 0
0 0.34375 0
0.03125 0.34375 0
0 0.375 0
0.03125 0.375 0
0.03125 0.34375 0
0.0625 0.34375 0
0.03125 0.375 0
0.0625 0.375 0
0.0625 0.3125 0
0.09375 0.3125 0
0.0625 0.34375 0
0.09375 0.34375 0
0.09375 0.3125 0
0.125 0.3125 0
0.09375 0.34375 0
0.125 0.34375 0
0.0625 0.34375 0
0.09375 0.34375 0
0.0625 0.375 0
0.09375 0.375 0
0.09375 0.34375 0
0.125 0.34375 0
0.09375 0.375 0
0.125 0.375 0
0.125 0.25 0
0.15625 0.25 0
0.125 0.28125 0
0.15625 0.28125 0
0.15625 0.25 0
0.1875 0.25 0
0.15625 0.28125 0
0.1875 0.28125 0
0.125 0.28125 0
0.15625 0.28125 0
0.125 0.3125 0
0.15625 0.3125 0
0.15625 0.28125 0
0.1875 0.28125 0
0.15625 0.3125 0
0.1875 0.3125 0
0.1875 0.25 0
0.21875 0.25 0
0.1875 0.28125 0
0.21875 0.28125 0
0.21875 0.25 0
0.25 0.25 0
0.21875 0.28125 0
0.25 0.28125 0
0.1875 0.28125 0
0.21875 0.28125 0
0.1875 0.3125 0
0.21875 0.3125 0
0.21875 0.28125 0
0.25 0.28125 0
0.21875 0.3125 0
0.25 0.3125 0
0.125 0.3125 0
0.15625 0.3125 0
0.125 0.34375 0
0.15625 0.34375 0
0.15625 0.3125 0
0.1875 0.3125 0
0.15625 0.34375 0
0.1875 0.34375 0
0.125 0.34375 0
[...]
POINT_DATA 4096
SCALARS p double 1
LOOKUP_TABLE default
-1.72208e-07 0.000131089 -0.000131682 2.68491e-08 0.000131089 0.000310131 2.68491e-08 7.24301e-05 -0.000131682 2.68491e-08 -0.000313409 -7.15127e-05 2.68491e-08 7.24301e-05 -7.15127e-05 3.11132e-06 0.000310131 0.000313773 7.24301e-05 3.67566e-05 0.000313773 9.82568e-05 3.67566e-05 -0.000151309 7.24301e-05 3.67566e-05 3.11132e-06 -5.00207e-05 3.67566e-05 -0.000151309 -5.00207e-05 -0.000267055 -0.000313409 -7.15127e-05 -0.000324349 -3.43481e-05 -7.15127e-05 3.11132e-06 -3.43481e-05 6.39962e-05 -0.000324349 -3.43481e-05 -0.000118574 0.000158755 -3.43481e-05 6.39962e-05 0.000158755 0.000295028 3.11132e-06 -5.00207e-05 6.39962e-05 1.32553e-05 -5.00207e-05 -0.000267055 1.32553e-05 -0.000202717 6.39962e-05 1.32553e-05 0.000295028 0.000246362 1.32553e-05 -0.000202717 0.000246362 2.90368e-05 9.82568e-05 -0.000330902 -0.000151309 -0.000497772 -0.000330902 -0.000958398 -0.000497772 -0.000999135 -0.000151309 -0.000497772 -0.000267055 -0.0006506 -0.000497772 -0.000999135 -0.0006506 -0.00119981 -0.000958398 -0.00177061 -0.000999135 -0.00164778 -0.00177061 -0.00275502 -0.00164778 -0.00243472 -0.000999135 -0.00164778 -0.00119981 -0.00190847 -0.00164778 -0.00243472 -0.00190847 -0.00276781 -0.000267055 -0.0006506 -0.000202717 -0.000582092 -0.0006506 -0.00119981 -0.000582092 -0.00112309 -0.000202717 -0.000582092 2.90368e-05 -0.00035739 -0.000582092 -0.00112309 -0.00035739 -0.000908575 -0.00119981 -0.00190847 -0.00112309 -0.0018202 -0.00190847 -0.00276781 -0.0018202 -0.00266536 -0.00112309 -0.0018202 -0.000908575 -0.00161874 -0.0018202 -0.00266536 -0.00161874 -0.00247971 -0.000118574 0.000158755 0.000305669 0.000520059 0.000158755 0.000295028 0.000520059 0.000705959 0.000305669 0.000520059 0.00094507 0.00105587 0.000520059 0.000705959 0.00105587 0.00130678 0.000295028 0.000246362 0.000705959 0.000654621 0.000246362 2.90368e-05 0.000654621 0.000435871 0.000705959 0.000654621 0.00130678 0.00124685 0.000654621 0.000435871 0.00124685 0.00102398 0.00094507 0.00105587 0.00180267 0.0017722 0.00105587 0.00130678 0.0017722 0.00210627 0.00180267 0.0017722 0.00288741 0.00267766 0.0017722 0.00210627 0.00267766 0.0031151 0.00130678 0.00124685 0.00210627 0.00203222 0.00124685 0.00102398 0.00203222 0.0018023 0.00210627 0.00203222 0.0031151 0.00302169 0.00203222 0.0018023 0.00302169 0.00278166 2.90368e-05 -0.00035739 0.000435871 4.01309e-05 -0.00035739 -0.000908575 4.01309e-05 -0.000525262 0.000435871 4.01309e-05 0.00102398 0.000613676 4.01309e-05 -0.000525262 0.000613676 2.67109e-05 -0.000908575 -0.00161874 -0.000525262 -0.00125429 -0.00161874 -0.00247971 -0.00125429 -0.00213835 -0.000525262 -0.00125429 2.67109e-05 -0.000730831 -0.00125429 -0.00213835 -0.000730831 -0.00164974 0.00102398 0.000613676 0.0018023 0.00137187 0.000613676 2.67109e-05 0.00137187 0.000755877 0.0018023 0.00137187 0.00278166 0.00232503 0.00137187 0.000755877 0.00232503 0.0016719 2.67109e-05 -0.000730831 0.000755877 -3.97036e-05 -0.000730831 -0.00164974 -3.97036e-05 -0.00100495 0.000755877 -3.97036e-05 0.0016719 0.000828013 -3.97036e-05 -0.00100495 0.000828013 -0.000195844 -0.00275502 -0.00389864 -0.00243472 -0.00334976 -0.00389864 -0.00518724 -0.00334976 -0.00438151 -0.00243472 -0.00334976 -0.00276781 -0.00376716 -0.00334976 -0.00438151 -0.00376716 -0.00489423 -0.00518724 -0.00660501 -0.00438151 -0.00551732 -0.00660501 -0.00813469 -0.00551732 -0.00674328 -0.00438151 -0.00551732 -0.00489423 -0.00613524 -0.00551732 -0.00674328 -0.00613524 -0.00747503 -0.00276781 -0.00376716 -0.00266536 -0.00364845 -0.00376716 -0.00489423 -0.00364845 -0.00475756 -0.00266536 -0.00364845 -0.00247971 -0.00348131 -0.00364845 -0.00475756 -0.00348131 -0.00461152 -0.00489423 -0.00613524 -0.00475756 -0.00597924 -0.00613524 -0.00747503 -0.00597924 -0.00729862 -0.00475756 -0.00597924 -0.00461152 -0.00585676 -0.00597924 -0.00729862 -0.00585676 -0.00720194 -0.00813469 -0.00975763 -0.00674328 -0.00804442 -0.00975763 -0.0114539 -0.00804442 -0.00940471 -0.00674328 -0.00804442 -0.00747503 -0.0088972 -0.00804442 -0.00940471 -0.0088972 -0.0103842 -0.0114539 -0.0132027 -0.00940471 -0.0108073 -0.0132027 -0.0149822 -0.0108073 -0.0122348 -0.00940471 -0.0108073 -0.0103842 -0.0119178 -0.0108073 -0.0122348 -0.0119178 -0.0134785 -0.00747503 -0.0088972 -0.00729862 -0.0086996 -0.0088972 -0.0103842 -0.0086996 -0.010165 -0.00729862 -0.0086996 -0.00720194 -0.00863072 -0.0086996 -0.010165 -0.00863072 -0.0101256 -0.0103842 -0.0119178 -0.010165 -0.0116766 -0.0119178 -0.0134785 -0.0116766 -0.0132155 -0.010165 -0.0116766 -0.0101256 -0.0116681 -0.0116766 -0.0132155 -0.0116681 -0.013239 -0.00247971 -0.00348131 -0.00213835 -0.003167 -0.00348131 -0.00461152 -0.003167 -0.00432798 -0.00213835 -0.003167 -0.00164974 -0.00271913 -0.003167 -0.00432798 -0.00271913 -0.00392626 -0.00461152 -0.00585676 -0.00432798 -0.00560738 -0.00585676 -0.00720194 -0.00560738 -0.00698981 -0.00432798 -0.00560738 -0.00392626 -0.00525672 -0.00560738 -0.00698981 -0.00525672 -0.0066946 -0.00164974 -0.00271913 -0.00100495 -0.00212837 -0.00271913 -0.00392626 -0.00212837 -0.00339656 -0.00100495 -0.00212837 -0.000195844 -0.0013874 -0.00212837 -0.00339656 -0.0013874 -0.00273244 -0.00392626 -0.00525672 -0.00339656 -0.00479444 -0.00525672 -0.0066946 -0.00479444 -0.00630538 -0.00339656 -0.00479444 -0.00273244 -0.00421501 -0.00479444 -0.00630538 -0.00421501 -0.00581759 -0.00720194 -0.00863072 -0.00698981 -0.00845855 -0.00863072 -0.0101256 -0.00845855 -0.00999574 -0.00698981 -0.00845855 -0.0066946 -0.00822265 -0.00845855 -0.00999574 -0.00822265 -0.00982238 -0.0101256 -0.0116681 -0.00999574 -0.0115825 -0.0116681 -0.013239 -0.0115825 -0.0131991 -0.00999574 -0.0115825 -0.00982238 -0.0114743 -0.0115825 -0.0131991 -0.0114743 -0.0131581 -0.0066946 -0.00822265 -0.00630538 -0.00791142 -0.00822265 -0.00982238 -0.00791142 -0.0095933 -0.00630538 -0.00791142 -0.00581759 -0.00752128 -0.00791142 -0.0095933 -0.00752128 -0.00930592 -0.00982238 -0.0114743 -0.0095933 -0.0113308 -0.0114743 -0.0131581 -0.0113308 -0.0131026 -0.0095933 -0.0113308 -0.00930592 -0.0111503 -0.0113308 -0.0131026 -0.0111503 -0.0130321 0.00288741 0.00267766 0.00421273 0.0037838 0.00267766 0.0031151 0.0037838 0.00434659 0.00421273 0.0037838 0.00579597 0.00510524 0.0037838 0.00434659 0.00510524 0.00581725 0.0031151 0.00302169 0.00434659 0.00422865 0.00302169 0.00278166 0.00422865 0.00397537 0.00434659 0.00422865 0.00581725 0.00566939 0.00422865 0.00397537 0.00566939 0.00539955 0.00579597 0.00510524 0.00765819 0.00665978 0.00510524 0.00581725 0.00665978 0.00754703 0.00765819 0.00665978 0.00982462 0.00846875 0.00665978 0.00754703 0.00846875 0.00955983 0.00581725 0.00566939 0.00754703 0.00736352 0.00566939 0.00539955 0.00736352 0.00707351 0.00754703 0.00736352 0.00955983 0.00933444 0.00736352 0.00707351 0.00933444 0.00902017 0.00278166 0.00232503 0.00397537 0.00348607 0.00232503 0.0016719 0.00348607 0.0027871 0.00397537 0.00348607 0.00539955 0.00487055 0.00348607 0.0027871 0.00487055 0.00411629 0.0016719 0.000828013 0.0027871 0.00188393 0.000828013 -0.000195844 0.00188393 0.000788418 0.0027871 0.00188393 0.00411629 0.00314196 0.00188393 0.000788418 0.00314196 0.00196074 0.00539955 0.00487055 0.00707351 0.00649711 0.00487055 0.00411629 0.00649711 0.00567716 0.00707351 0.00649711 0.00902017 0.00838772 0.00649711 0.00567716 0.00838772 0.00749049 0.00411629 0.00314196 0.00567716 0.00461867 0.00314196 0.00196074 0.00461867 0.00333645 0.00567716 0.00461867 0.00749049 0.0063334 0.00461867 0.00333645 0.0063334 0.00493331 0.00982462 0.00846875 0.0123251 0.0105575 0.00846875 0.00955983 0.0105575 0.011884 0.0123251 0.0105575 0.0151947 0.012956 0.0105575 0.011884 0.012956 0.0145534 0.00955983 0.00933444 0.011884 0.0116099 0.00933444 0.00902017 0.0116099 0.0112666 0.011884 0.0116099 0.0145534 0.0142227 0.0116099 0.0112666 0.0142227 0.0138447 0.0151947 0.012956 0.0184749 0.0157 0.012956 0.0145534 0.0157 0.0176078 0.0184749 0.0157 0.0222149 0.0188319 0.0157 0.0176078 0.0188319 0.0210953 0.0145534 0.0142227 0.0176078 0.0172117 0.0142227 0.0138447 0.0172117 0.016792 0.0176078 0.0172117 0.0210953 0.0206235 0.0172117 0.016792 0.0206235 0.0201531 0.00902017 0.00838772 0.0112666 0.0105682 0.00838772 0.00749049 0.0105682 0.0095805 0.0112666 0.0105682 0.0138447 0.0130688 0.0105682 0.0095805 0.0130688 0.0119753 0.00749049 0.0063334 0.0095805 0.00830853 0.0063334 0.00493331 0.00830853 0.00677174 0.0095805 0.00830853 0.0119753 0.0105698 0.00830853 0.00677174 0.0105698 0.00887497 0.0138447 0.0130688 0.016792 0.0159248 0.0130688 0.0119753 0.0159248 0.0147073 0.016792 0.0159248 0.0201531 0.0191774 0.0159248 0.0147073 0.0191774 0.0178141 0.0119753 0.0105698 0.0147073 0.0131465 0.0105698 0.00887497 0.0131465 0.0112691 0.0147073 0.0131465 0.0178141 0.016072 0.0131465 0.0112691 0.016072 0.0139834 -0.000195844 -0.0013874 0.000788418 -0.000486235 -0.0013874 -0.00273244 -0.000486235 -0.00192476 0.000788418 -0.000486235 0.00196074 0.000586989 -0.000486235 -0.00192476 0.000586989 -0.000962755 -0.00273244 -0.00421501 -0.00192476 -0.00351015 -0.00421501 -0.00581759 -0.00351015 -0.00522379 -0.00192476 -0.00351015 -0.000962755 -0.00267019 -0.00351015 -0.00522379 -0.00267019 -0.00451544 0.00196074 0.000586989 0.00333645 0.00184628 0.000586989 -0.000962755 0.00184628 0.000166258 0.00333645 0.00184628 0.00493331 0.0033078 0.00184628 0.000166258 0.0033078 0.00147685 -0.000962755 -0.00267019 0.000166258 -0.00168378 -0.00267019 -0.00451544 -0.00168378 -0.00368244 0.000166258 -0.00168378 0.00147685 -0.000537871 -0.00168378 -0.00368244 -0.000537871 -0.00271325 -0.00581759 -0.00752128 -0.00522379 -0.0070457 -0.00752128 -0.00930592 -0.0070457 -0.00895463 -0.00522379 -0.0070457 -0.00451544 -0.00647723 -0.0070457 -0.00895463 -0.00647723 -0.00853308 -0.00930592 -0.0111503 -0.00895463 -0.0109282 -0.0111503 -0.0130321 -0.0109282 -0.0129431 -0.00895463 -0.0109282 -0.00853308 -0.0106594 -0.0109282 -0.0129431 -0.0106594 -0.0128315 -0.00451544 -0.00647723 -0.00368244 -0.00580705 -0.00647723 -0.00853308 -0.00580705 -0.00803371 -0.00368244 -0.00580705 -0.00271325 -0.00502497 -0.00580705 -0.00803371 -0.00502497 -0.00744766 -0.00853308 -0.0106594 -0.00803371 -0.0103375 -0.0106594 -0.0128315 -0.0103375 -0.0126923 -0.00803371 -0.0103375 -0.00744766 -0.00995498 -0.0103375 -0.0126923 -0.00995498 -0.0125195 0.00493331 0.0033078 0.00677174 0.00498998 0.0033078 0.00147685 0.00498998 0.00298551 0.00677174 0.00498998 0.00887497 0.00691356 0.00498998 0.00298551 0.00691356 0.00471068 0.00147685 -0.000537871 0.00298551 0.00078221 -0.000537871 -0.00271325 0.00078221 -0.00159483 0.00298551 0.00078221 0.00471068 0.00229277 0.00078221 -0.00159483 0.00229277 -0.000312754 0.00887497 0.00691356 0.0112691 0.0091016 0.00691356 0.00471068 0.0091016 0.00667255 0.0112691 0.0091016 0.0139834 0.0115793 0.0091016 0.00667255 0.0115793 0.0088929 0.00471068 0.00229277 0.00667255 0.00401154 0.00229277 -0.000312754 0.00401154 0.00114861 0.00667255 0.00401154 0.0088929 0.00595737 0.00401154 0.00114861 0.00595737 0.00280579 -0.00271325 -0.00502497 -0.00159483 -0.00411951 -0.00502497 -0.00744766 -0.00411951 -0.00676488 -0.00159483 -0.00411951 -0.000312754 -0.00307785 -0.00411951 -0.00676488 -0.00307785 -0.00597398 -0.00744766 -0.00995498 -0.00676488 -0.00950319 -0.00995498 -0.0125195 -0.00950319 -0.0123057 -0.00676488 -0.00950319 -0.00597398 -0.00897202 -0.00950319 -0.0123057 -0.00897202 -0.0120421 -0.000312754 -0.00307785 0.00114861 -0.00188609 -0.00307785 -0.00597398 -0.00188609 -0.00506242 0.00114861 -0.00188609 0.00280579 -0.000529452 -0.00188609 -0.00506242 -0.000529452 -0.00401669 -0.00597398 -0.00897202 -0.00506242 -0.0083501 -0.00897202 -0.0120421 -0.0083501 -0.0117184 -0.00506242 -0.0083501 -0.00401669 -0.0076248 -0.0083501 -0.0117184 -0.0076248 -0.0113227 -0.0149822 -0.01677 -0.0122348 -0.013669 -0.01677 -0.0185434 -0.013669 -0.0150917 -0.0122348 -0.013669 -0.0134785 -0.0150468 -0.013669 -0.0150917 -0.0150468 -0.0166024 -0.0185434 -0.0202794 -0.0150917 -0.0164842 -0.0202794 -0.0219552 -0.0164842 -0.0178283 -0.0150917 -0.0164842 -0.0166024 -0.0181252 -0.0164842 -0.0178283 -0.0181252 -0.019595 -0.0134785 -0.0150468 -0.0132155 -0.0147623 -0.0150468 -0.0166024 -0.0147623 -0.016297 -0.0132155 -0.0147623 -0.013239 -0.0148185 -0.0147623 -0.016297 -0.0148185 -0.0163863 -0.0166024 -0.0181252 -0.016297 -0.0177997 -0.0181252 -0.019595 -0.0177997 -0.0192504 -0.016297 -0.0177997 -0.0163863 -0.0179218 -0.0177997 -0.0192504 -0.0179218 -0.0194049 -0.0219552 -0.0235485 -0.0178283 -0.0191059 -0.0235485 -0.0250374 -0.0191059 -0.0202995 -0.0178283 -0.0191059 -0.019595 -0.020992 -0.0191059 -0.0202995 -0.020992 -0.022297 -0.0250374 -0.0264012 -0.0202995 -0.0213923 -0.0264012 -0.0276205 -0.0213923 -0.0223687 -0.0202995 -0.0213923 -0.022297 -0.0234917 -0.0213923 -0.0223687 -0.0234917 -0.0245591 -0.019595 -0.020992 -0.0192504 -0.0206295 -0.020992 -0.022297 -0.0206295 -0.021918 -0.0192504 -0.0206295 -0.0194049 -0.0208152 -0.0206295 -0.021918 -0.0208152 -0.0221334 -0.022297 -0.0234917 -0.021918 -0.0230977 -0.0234917 -0.0245591 -0.0230977 -0.0241519 -0.021918 -0.0230977 -0.0221334 -0.0233407 -0.0230977 -0.0241519 -0.0233407 -0.0244199 -0.013239 -0.0148185 -0.0131991 -0.0148252 -0.0148185 -0.0163863 -0.0148252 -0.0164401 -0.0131991 -0.0148252 -0.0131581 -0.0148527 -0.0148252 -0.0164401 -0.0148527 -0.0165365 -0.0163863 -0.0179218 -0.0164401 -0.0180226 -0.0179218 -0.0194049 -0.0180226 -0.0195518 -0.0164401 -0.0180226 -0.0165365 -0.0181877 -0.0180226 -0.0195518 -0.0181877 -0.0197843 -0.0131581 -0.0148527 -0.0131026 -0.0148868 -0.0148527 -0.0165365 -0.0148868 -0.016661 -0.0131026 -0.0148868 -0.0130321 -0.0149285 -0.0148868 -0.016661 -0.0149285 -0.0168156 -0.0165365 -0.0181877 -0.016661 -0.0184022 -0.0181877 -0.0197843 -0.0184022 -0.0200872 -0.016661 -0.0184022 -0.0168156 -0.0186694 -0.0184022 -0.0200872 -0.0186694 -0.0204653 -0.0194049 -0.0208152 -0.0195518 -0.0210068 -0.0208152 -0.0221334 -0.0210068 -0.0223675 -0.0195518 -0.0210068 -0.0197843 -0.0213047 -0.0210068 -0.0223675 -0.0213047 -0.0227275 -0.0221334 -0.0233407 -0.0223675 -0.0236145 -0.0233407 -0.0244199 -0.0236145 -0.0247296 -0.0223675 -0.0236145 -0.0227275 -0.0240323 -0.0236145 -0.0247296 -0.0240323 -0.0252 -0.0197843 -0.0213047 -0.0200872 -0.0216933 -0.0213047 -0.0227275 -0.0216933 -0.0231977 -0.0200872 -0.0216933 -0.0204653 -0.022179 -0.0216933 -0.0231977 -0.022179 -0.0237861 -0.0227275 -0.0240323 -0.0231977 -0.0245787 -0.0240323 -0.0252 -0.0245787 -0.0258156 -0.0231977 -0.0245787 -0.0237861 -0.0252632 -0.0245787 -0.0258156 -0.0252632 -0.0265877 -0.0276205 -0.0286774 -0.0223687 -0.0232142 -0.0286774 -0.0295546 -0.0232142 -0.0239167 -0.0223687 -0.0232142 -0.0245591 -0.0254833 -0.0232142 -0.0239167 -0.0254833 -0.0262514 -0.0295546 -0.0302398 -0.0239167 -0.0244594 -0.0302398 -0.0307018 -0.0244594 -0.024861 -0.0239167 -0.0244594 -0.0262514 -0.0268475 -0.0244594 -0.024861 -0.0268475 -0.0272855 -0.0245591 -0.0254833 -0.0241519 -0.0250648 -0.0254833 -0.0262514 -0.0250648 -0.0258239 -0.0241519 -0.0250648 -0.0244199 -0.0253548 -0.0250648 -0.0258239 -0.0253548 -0.0261325 -0.0262514 -0.0268475 -0.0258239 -0.0264134 -0.0268475 -0.0272855 -0.0264134 -0.0268495 -0.0258239 -0.0264134 -0.0261325 -0.0267369 -0.0264134 -0.0268495 -0.0267369 -0.0271834 -0.0307018 -0.0309983 -0.024861 -0.0249727 -0.0309983 -0.0310156 -0.0249727 -0.0255442 -0.024861 -0.0249727 -0.0272855 -0.0274381 -0.0249727 -0.0255442 -0.0274381 -0.0279943 -0.0310156 -0.0293386 -0.0255442 -0.0229269 -0.0293386 -0.0320563 -0.0229269 -0.0290702 -0.0255442 -0.0229269 -0.0279943 -0.0254038 -0.0229269 -0.0290702 -0.0254038 -0.0303886 -0.0272855 -0.0274381 -0.0268495 -0.0269973 -0.0274381 -0.0279943 -0.0269973 -0.0275756 -0.0268495 -0.0269973 -0.0271834 -0.0273364 -0.0269973 -0.0275756 -0.0273364 -0.0279093 -0.0279943 -0.0254038 -0.0275756 -0.0249248 -0.0254038 -0.0303886 -0.0249248 -0.030379 -0.0275756 -0.0249248 -0.0279093 -0.0252289 -0.0249248 -0.030379 -0.0252289 -0.030546 -0.0244199 -0.0253548 -0.0247296 -0.0256962 -0.0253548 -0.0261325 -0.0256962 -0.0265003 -0.0247296 -0.0256962 -0.0252 -0.0262127 -0.0256962 -0.0265003 -0.0262127 -0.0270556 -0.0261325 -0.0267369 -0.0265003 -0.0271254 -0.0267369 -0.0271834 -0.0271254 -0.0275862 -0.0265003 -0.0271254 -0.0270556 -0.0277107 -0.0271254 -0.0275862 -0.0277107 -0.0281925 -0.0252 -0.0262127 -0.0258156 -0.0268893 -0.0262127 -0.0270556 -0.0268893 -0.0277833 -0.0258156 -0.0268893 -0.0265877 -0.0277385 -0.0268893 -0.0277833 -0.0277385 -0.0286977 -0.0270556 -0.0277107 -0.0277833 -0.0284785 -0.0277107 -0.0281925 -0.0284785 -0.0289888 -0.0277833 -0.0284785 -0.0286977 -0.0294441 -0.0284785 -0.0289888 -0.0294441 -0.0299913 -0.0271834 -0.0273364 -0.0275862 -0.0277434 -0.0273364 -0.0279093 -0.0277434 -0.0283213 -0.0275862 -0.0277434 -0.0281925 -0.0283578 -0.0277434 -0.0283213 -0.0283578 -0.0289462 -0.0279093 -0.0252289 -0.0283213 -0.0255853 -0.0252289 -0.030546 -0.0255853 -0.0309981 -0.0283213 -0.0255853 -0.0289462 -0.0261442 -0.0255853 -0.0309981 -0.0261442 -0.0316577 -0.0281925 -0.0283578 -0.0289888 -0.0291664 -0.0283578 -0.0289462 -0.0291664 -0.0297717 -0.0289888 -0.0291664 -0.0299913 -0.0301856 -0.0291664 -0.0297717 -0.0301856 -0.0308141 -0.0289462 -0.0261442 -0.0297717 -0.0268842 -0.0261442 -0.0316577 -0.0268842 -0.0325436 -0.0297717 -0.0268842 -0.0308141 -0.0278205 -0.0268842 -0.0325436 -0.0278205 -0.0336632 -0.0130321 -0.0149285 -0.0129431 -0.014975 -0.0149285 -0.0168156 -0.014975 -0.016999 -0.0129431 -0.014975 -0.0128315 -0.0150238 -0.014975 -0.016999 -0.0150238 -0.0172099 -0.0168156 -0.0186694 -0.016999 -0.0189894 -0.0186694 -0.0204653 -0.0189894 -0.0209201 -0.016999 -0.0189894 -0.0172099 -0.0193625 -0.0189894 -0.0209201 -0.0193625 -0.0214536 -0.0128315 -0.0150238 -0.0126923 -0.0150713 -0.0150238 -0.0172099 -0.0150713 -0.0174464 -0.0126923 -0.0150713 -0.0125195 -0.0151129 -0.0150713 -0.0174464 -0.0151129 -0.0177056 -0.0172099 -0.0193625 -0.0174464 -0.0197885 -0.0193625 -0.0214536 -0.0197885 -0.0220678 -0.0174464 -0.0197885 -0.0177056 -0.0202666 -0.0197885 -0.0220678 -0.0202666 -0.0227639 -0.0204653 -0.022179 -0.0209201 -0.0227649 -0.022179 -0.0237861 -0.0227649 -0.0244975 -0.0209201 -0.0227649 -0.0214536 -0.0234549 -0.0227649 -0.0244975 -0.0234549 -0.0253379 -0.0237861 -0.0252632 -0.0244975 -0.0260922 -0.0252632 -0.0265877 -0.0260922 -0.0275243 -0.0244975 -0.0260922 -0.0253379 -0.0270742 -0.0260922 -0.0275243 -0.0270742 -0.0286362 -0.0214536 -0.0234549 -0.0220678 -0.0242534 -0.0234549 -0.0253379 -0.0242534 -0.0263141 -0.0220678 -0.0242534 -0.0227639 -0.0251642 -0.0242534 -0.0263141 -0.0251642 -0.027433 -0.0253379 -0.0270742 -0.0263141 -0.0282185 -0.0270742 -0.0286362 -0.0282185 -0.0299356 -0.0263141 -0.0282185 -0.027433 -0.0295354 -0.0282185 -0.0299356 -0.0295354 -0.0314362 -0.0125195 -0.0151129 -0.0123057 -0.0151428 -0.0151129 -0.0177056 -0.0151428 -0.0179832 -0.0123057 -0.0151428 -0.0120421 -0.0151535 -0.0151428 -0.0179832 -0.0151535 -0.0182737 -0.0177056 -0.0202666 -0.0179832 -0.0207945 -0.0202666 -0.0227639 -0.0207945 -0.0235424 -0.0179832 -0.0207945 -0.0182737 -0.0213688 -0.0207945 -0.0235424 -0.0213688 -0.0244022 -0.0120421 -0.0151535 -0.0117184 -0.0151359 -0.0151535 -0.0182737 -0.0151359 -0.0185692 -0.0117184 -0.0151359 -0.0113227 -0.0150786 -0.0151359 -0.0185692 -0.0150786 -0.0188594 -0.0182737 -0.0213688 -0.0185692 -0.0219833 -0.0213688 -0.0244022 -0.0219833 -0.0253399 -0.0185692 -0.0219833 -0.0188594 -0.0226293 -0.0219833 -0.0253399 -0.0226293 -0.026349 -0.0227639 -0.0251642 -0.0235424 -0.0261907 -0.0251642 -0.027433 -0.0261907 -0.0287015 -0.0235424 -0.0261907 -0.0244022 -0.0273351 -0.0261907 -0.0287015 -0.0273351 -0.0301257 -0.027433 -0.0295354 -0.0287015 -0.0310356 -0.0295354 -0.0314362 -0.0310356 -0.0331531 -0.0287015 -0.0310356 -0.0301257 -0.0327301 -0.0310356 -0.0331531 -0.0327301 -0.0351023 -0.0244022 -0.0273351 -0.0253399 -0.0285974 -0.0273351 -0.0301257 -0.0285974 -0.0317102 -0.0253399 -0.0285974 -0.026349 -0.0299747 -0.0285974 -0.0317102 -0.0299747 -0.0334568 -0.0301257 -0.0327301 -0.0317102 -0.0346289 -0.0327301 -0.03510