# vtk DataFile Version 3.0
#This file was generated by the deal.II library on 2026/1/5 at 14:19:29
ASCII
DATASET UNSTRUCTURED_GRID

POINTS 4096 double
0 0 0
0.03125 0 0
0 0.03125 0
0.03125 0.03125 0
0.03125 0 0
0.0625 0 0
0.03125 0.03125 0
0.0625 0.03125 0
0 0.03125 0
0.03125 0.03125 0
0 0.0625 0
0.03125 0.0625 0
0.03125 0.03125 0
0.0625 0.03125 0
0.03125 0.0625 0
0.0625 0.0625 0
0.0625 0 0
0.09375 0 0
0.0625 0.03125 0
0.09375 0.03125 0
0.09375 0 0
0.125 0 0
0.09375 0.03125 0
0.125 0.03125 0
0.0625 0.03125 0
0.09375 0.03125 0
0.0625 0.0625 0
0.09375 0.0625 0
0.09375 0.03125 0
0.125 0.03125 0
0.09375 0.0625 0
0.125 0.0625 0
0 0.0625 0
0.03125 0.0625 0
0 0.09375 0
0.03125 0.09375 0
0.03125 0.0625 0
0.0625 0.0625 0
0.03125 0.09375 0
0.0625 0.09375 0
0 0.09375 0
0.03125 0.09375 0
0 0.125 0
0.03125 0.125 0
0.03125 0.09375 0
0.0625 0.09375 0
0.03125 0.125 0
0.0625 0.125 0
0.0625 0.0625 0
0.09375 0.0625 0
0.0625 0.09375 0
0.09375 0.09375 0
0.09375 0.0625 0
0.125 0.0625 0
0.09375 0.09375 0
0.125 0.09375 0
0.0625 0.09375 0
0.09375 0.09375 0
0.0625 0.125 0
0.09375 0.125 0
0.09375 0.09375 0
0.125 0.09375 0
0.09375 0.125 0
0.125 0.125 0
0.125 0 0
0.15625 0 0
0.125 0.03125 0
0.15625 0.03125 0
0.15625 0 0
0.1875 0 0
0.15625 0.03125 0
0.1875 0.03125 0
0.125 0.03125 0
0.15625 0.03125 0
0.125 0.0625 0
0.15625 0.0625 0
0.15625 0.03125 0
0.1875 0.03125 0
0.15625 0.0625 0
0.1875 0.0625 0
0.1875 0 0
0.21875 0 0
0.1875 0.03125 0
0.21875 0.03125 0
0.21875 0 0
0.25 0 0
0.21875 0.03125 0
0.25 0.03125 0
0.1875 0.03125 0
0.21875 0.03125 0
0.1875 0.0625 0
0.21875 0.0625 0
0.21875 0.03125 0
0.25 0.03125 0
0.21875 0.0625 0
0.25 0.0625 0
0.125 0.0625 0
0.15625 0.0625 0
0.125 0.09375 0
0.15625 0.09375 0
0.15625 0.0625 0
0.1875 0.0625 0
0.15625 0.09375 0
0.1875 0.09375 0
0.125 0.09375 0
0.15625 0.09375 0
0.125 0.125 0
0.15625 0.125 0
0.15625 0.09375 0
0.1875 0.09375 0
0.15625 0.125 0
0.1875 0.125 0
0.1875 0.0625 0
0.21875 0.0625 0
0.1875 0.09375 0
0.21875 0.09375 0
0.21875 0.0625 0
0.25 0.0625 0
0.21875 0.09375 0
0.25 0.09375 0
0.1875 0.09375 0
0.21875 0.09375 0
0.1875 0.125 0
0.21875 0.125 0
0.21875 0.09375 0
0.25 0.09375 0
0.21875 0.125 0
0.25 0.125 0
0 0.125 0
0.03125 0.125 0
0 0.15625 0
0.03125 0.15625 0
0.03125 0.125 0
0.0625 0.125 0
0.03125 0.15625 0
0.0625 0.15625 0
0 0.15625 0
0.03125 0.15625 0
0 0.1875 0
0.03125 0.1875 0
0.03125 0.15625 0
0.0625 0.15625 0
0.03125 0.1875 0
0.0625 0.1875 0
0.0625 0.125 0
0.09375 0.125 0
0.0625 0.15625 0
0.09375 0.15625 0
0.09375 0.125 0
0.125 0.125 0
0.09375 0.15625 0
0.125 0.15625 0
0.0625 0.15625 0
0.09375 0.15625 0
0.0625 0.1875 0
0.09375 0.1875 0
0.09375 0.15625 0
0.125 0.15625 0
0.09375 0.1875 0
0.125 0.1875 0
0 0.1875 0
0.03125 0.1875 0
0 0.21875 0
0.03125 0.21875 0
0.03125 0.1875 0
0.0625 0.1875 0
0.03125 0.21875 0
0.0625 0.21875 0
0 0.21875 0
0.03125 0.21875 0
0 0.25 0
0.03125 0.25 0
0.03125 0.21875 0
0.0625 0.21875 0
0.03125 0.25 0
0.0625 0.25 0
0.0625 0.1875 0
0.09375 0.1875 0
0.0625 0.21875 0
0.09375 0.21875 0
0.09375 0.1875 0
0.125 0.1875 0
0.09375 0.21875 0
0.125 0.21875 0
0.0625 0.21875 0
0.09375 0.21875 0
0.0625 0.25 0
0.09375 0.25 0
0.09375 0.21875 0
0.125 0.21875 0
0.09375 0.25 0
0.125 0.25 0
0.125 0.125 0
0.15625 0.125 0
0.125 0.15625 0
0.15625 0.15625 0
0.15625 0.125 0
0.1875 0.125 0
0.15625 0.15625 0
0.1875 0.15625 0
0.125 0.15625 0
0.15625 0.15625 0
0.125 0.1875 0
0.15625 0.1875 0
0.15625 0.15625 0
0.1875 0.15625 0
0.15625 0.1875 0
0.1875 0.1875 0
0.1875 0.125 0
0.21875 0.125 0
0.1875 0.15625 0
0.21875 0.15625 0
0.21875 0.125 0
0.25 0.125 0
0.21875 0.15625 0
0.25 0.15625 0
0.1875 0.15625 0
0.21875 0.15625 0
0.1875 0.1875 0
0.21875 0.1875 0
0.21875 0.15625 0
0.25 0.15625 0
0.21875 0.1875 0
0.25 0.1875 0
0.125 0.1875 0
0.15625 0.1875 0
0.125 0.21875 0
0.15625 0.21875 0
0.15625 0.1875 0
0.1875 0.1875 0
0.15625 0.21875 0
0.1875 0.21875 0
0.125 0.21875 0
0.15625 0.21875 0
0.125 0.25 0
0.15625 0.25 0
0.15625 0.21875 0
0.1875 0.21875 0
0.15625 0.25 0
0.1875 0.25 0
0.1875 0.1875 0
0.21875 0.1875 0
0.1875 0.21875 0
0.21875 0.21875 0
0.21875 0.1875 0
0.25 0.1875 0
0.21875 0.21875 0
0.25 0.21875 0
0.1875 0.21875 0
0.21875 0.21875 0
0.1875 0.25 0
0.21875 0.25 0
0.21875 0.21875 0
0.25 0.21875 0
0.21875 0.25 0
0.25 0.25 0
0.25 0 0
0.28125 0 0
0.25 0.03125 0
0.28125 0.03125 0
0.28125 0 0
0.3125 0 0
0.28125 0.03125 0
0.3125 0.03125 0
0.25 0.03125 0
0.28125 0.03125 0
0.25 0.0625 0
0.28125 0.0625 0
0.28125 0.03125 0
0.3125 0.03125 0
0.28125 0.0625 0
0.3125 0.0625 0
0.3125 0 0
0.34375 0 0
0.3125 0.03125 0
0.34375 0.03125 0
0.34375 0 0
0.375 0 0
0.34375 0.03125 0
0.375 0.03125 0
0.3125 0.03125 0
0.34375 0.03125 0
0.3125 0.0625 0
0.34375 0.0625 0
0.34375 0.03125 0
0.375 0.03125 0
0.34375 0.0625 0
0.375 0.0625 0
0.25 0.0625 0
0.28125 0.0625 0
0.25 0.09375 0
0.28125 0.09375 0
0.28125 0.0625 0
0.3125 0.0625 0
0.28125 0.09375 0
0.3125 0.09375 0
0.25 0.09375 0
0.28125 0.09375 0
0.25 0.125 0
0.28125 0.125 0
0.28125 0.09375 0
0.3125 0.09375 0
0.28125 0.125 0
0.3125 0.125 0
0.3125 0.0625 0
0.34375 0.0625 0
0.3125 0.09375 0
0.34375 0.09375 0
0.34375 0.0625 0
0.375 0.0625 0
0.34375 0.09375 0
0.375 0.09375 0
0.3125 0.09375 0
0.34375 0.09375 0
0.3125 0.125 0
0.34375 0.125 0
0.34375 0.09375 0
0.375 0.09375 0
0.34375 0.125 0
0.375 0.125 0
0.375 0 0
0.40625 0 0
0.375 0.03125 0
0.40625 0.03125 0
0.40625 0 0
0.4375 0 0
0.40625 0.03125 0
0.4375 0.03125 0
0.375 0.03125 0
0.40625 0.03125 0
0.375 0.0625 0
0.40625 0.0625 0
0.40625 0.03125 0
0.4375 0.03125 0
0.40625 0.0625 0
0.4375 0.0625 0
0.4375 0 0
0.46875 0 0
0.4375 0.03125 0
0.46875 0.03125 0
0.46875 0 0
0.5 0 0
0.46875 0.03125 0
0.5 0.03125 0
0.4375 0.03125 0
0.46875 0.03125 0
0.4375 0.0625 0
0.46875 0.0625 0
0.46875 0.03125 0
0.5 0.03125 0
0.46875 0.0625 0
0.5 0.0625 0
0.375 0.0625 0
0.40625 0.0625 0
0.375 0.09375 0
0.40625 0.09375 0
0.40625 0.0625 0
0.4375 0.0625 0
0.40625 0.09375 0
0.4375 0.09375 0
0.375 0.09375 0
0.40625 0.09375 0
0.375 0.125 0
0.40625 0.125 0
0.40625 0.09375 0
0.4375 0.09375 0
0.40625 0.125 0
0.4375 0.125 0
0.4375 0.0625 0
0.46875 0.0625 0
0.4375 0.09375 0
0.46875 0.09375 0
0.46875 0.0625 0
0.5 0.0625 0
0.46875 0.09375 0
0.5 0.09375 0
0.4375 0.09375 0
0.46875 0.09375 0
0.4375 0.125 0
0.46875 0.125 0
0.46875 0.09375 0
0.5 0.09375 0
0.46875 0.125 0
0.5 0.125 0
0.25 0.125 0
0.28125 0.125 0
0.25 0.15625 0
0.28125 0.15625 0
0.28125 0.125 0
0.3125 0.125 0
0.28125 0.15625 0
0.3125 0.15625 0
0.25 0.15625 0
0.28125 0.15625 0
0.25 0.1875 0
0.28125 0.1875 0
0.28125 0.15625 0
0.3125 0.15625 0
0.28125 0.1875 0
0.3125 0.1875 0
0.3125 0.125 0
0.34375 0.125 0
0.3125 0.15625 0
0.34375 0.15625 0
0.34375 0.125 0
0.375 0.125 0
0.34375 0.15625 0
0.375 0.15625 0
0.3125 0.15625 0
0.34375 0.15625 0
0.3125 0.1875 0
0.34375 0.1875 0
0.34375 0.15625 0
0.375 0.15625 0
0.34375 0.1875 0
0.375 0.1875 0
0.25 0.1875 0
0.28125 0.1875 0
0.25 0.21875 0
0.28125 0.21875 0
0.28125 0.1875 0
0.3125 0.1875 0
0.28125 0.21875 0
0.3125 0.21875 0
0.25 0.21875 0
0.28125 0.21875 0
0.25 0.25 0
0.28125 0.25 0
0.28125 0.21875 0
0.3125 0.21875 0
0.28125 0.25 0
0.3125 0.25 0
0.3125 0.1875 0
0.34375 0.1875 0
0.3125 0.21875 0
0.34375 0.21875 0
0.34375 0.1875 0
0.375 0.1875 0
0.34375 0.21875 0
0.375 0.21875 0
0.3125 0.21875 0
0.34375 0.21875 0
0.3125 0.25 0
0.34375 0.25 0
0.34375 0.21875 0
0.375 0.21875 0
0.34375 0.25 0
0.375 0.25 0
0.375 0.125 0
0.40625 0.125 0
0.375 0.15625 0
0.40625 0.15625 0
0.40625 0.125 0
0.4375 0.125 0
0.40625 0.15625 0
0.4375 0.15625 0
0.375 0.15625 0
0.40625 0.15625 0
0.375 0.1875 0
0.40625 0.1875 0
0.40625 0.15625 0
0.4375 0.15625 0
0.40625 0.1875 0
0.4375 0.1875 0
0.4375 0.125 0
0.46875 0.125 0
0.4375 0.15625 0
0.46875 0.15625 0
0.46875 0.125 0
0.5 0.125 0
0.46875 0.15625 0
0.5 0.15625 0
0.4375 0.15625 0
0.46875 0.15625 0
0.4375 0.1875 0
0.46875 0.1875 0
0.46875 0.15625 0
0.5 0.15625 0
0.46875 0.1875 0
0.5 0.1875 0
0.375 0.1875 0
0.40625 0.1875 0
0.375 0.21875 0
0.40625 0.21875 0
0.40625 0.1875 0
0.4375 0.1875 0
0.40625 0.21875 0
0.4375 0.21875 0
0.375 0.21875 0
0.40625 0.21875 0
0.375 0.25 0
0.40625 0.25 0
0.40625 0.21875 0
0.4375 0.21875 0
0.40625 0.25 0
0.4375 0.25 0
0.4375 0.1875 0
0.46875 0.1875 0
0.4375 0.21875 0
0.46875 0.21875 0
0.46875 0.1875 0
0.5 0.1875 0
0.46875 0.21875 0
0.5 0.21875 0
0.4375 0.21875 0
0.46875 0.21875 0
0.4375 0.25 0
0.46875 0.25 0
0.46875 0.21875 0
0.5 0.21875 0
0.46875 0.25 0
0.5 0.25 0
0 0.25 0
0.03125 0.25 0
0 0.28125 0
0.03125 0.28125 0
0.03125 0.25 0
0.0625 0.25 0
0.03125 0.28125 0
0.0625 0.28125 0
0 0.28125 0
0.03125 0.28125 0
0 0.3125 0
0.03125 0.3125 0
0.03125 0.28125 0
0.0625 0.28125 0
0.03125 0.3125 0
0.0625 0.3125 0
0.0625 0.25 0
0.09375 0.25 0
0.0625 0.28125 0
0.09375 0.28125 0
0.09375 0.25 0
0.125 0.25 0
0.09375 0.28125 0
0.125 0.28125 0
0.0625 0.28125 0
0.09375 0.28125 0
0.0625 0.3125 0
0.09375 0.3125 0
0.09375 0.28125 0
0.125 0.28125 0
0.09375 0.3125 0
0.125 0.3125 0
0 0.3125 0
0.03125 0.3125 0
0 0.34375 0
0.03125 0.34375 0
0.03125 0.3125 0
0.0625 0.3125 0
0.03125 0.34375 0
0.0625 0.34375 0
0 0.34375 0
0.03125 0.34375 0
0 0.375 0
0.03125 0.375 0
0.03125 0.34375 0
0.0625 0.34375 0
0.03125 0.375 0
0.0625 0.375 0
0.0625 0.3125 0
0.09375 0.3125 0
0.0625 0.34375 0
0.09375 0.34375 0
0.09375 0.3125 0
0.125 0.3125 0
0.09375 0.34375 0
0.125 0.34375 0
0.0625 0.34375 0
0.09375 0.34375 0
0.0625 0.375 0
0.09375 0.375 0
0.09375 0.34375 0
0.125 0.34375 0
0.09375 0.375 0
0.125 0.375 0
0.125 0.25 0
0.15625 0.25 0
0.125 0.28125 0
0.15625 0.28125 0
0.15625 0.25 0
0.1875 0.25 0
0.15625 0.28125 0
0.1875 0.28125 0
0.125 0.28125 0
0.15625 0.28125 0
0.125 0.3125 0
0.15625 0.3125 0
0.15625 0.28125 0
0.1875 0.28125 0
0.15625 0.3125 0
0.1875 0.3125 0
0.1875 0.25 0
0.21875 0.25 0
0.1875 0.28125 0
0.21875 0.28125 0
0.21875 0.25 0
0.25 0.25 0
0.21875 0.28125 0
0.25 0.28125 0
0.1875 0.28125 0
0.21875 0.28125 0
0.1875 0.3125 0
0.21875 0.3125 0
0.21875 0.28125 0
0.25 0.28125 0
0.21875 0.3125 0
0.25 0.3125 0
0.125 0.3125 0
0.15625 0.3125 0
0.125 0.34375 0
0.15625 0.34375 0
0.15625 0.3125 0
0.1875 0.3125 0
0.15625 0.34375 0
0.1875 0.34375 0
0.125 0.34375 0
[...]
POINT_DATA 4096
SCALARS p double 1
LOOKUP_TABLE default
-1.28484e-07 0.000132864 -0.000133369 6.63942e-08 0.000132864 0.00029628 6.63942e-08 6.14077e-05 -0.000133369 6.63942e-08 -0.000299461 -6.03367e-05 6.63942e-08 6.14077e-05 -6.03367e-05 3.19004e-06 0.00029628 0.000265287 6.14077e-05 1.76497e-06 0.000265287 4.29518e-06 1.76497e-06 -0.000219981 6.14077e-05 1.76497e-06 3.19004e-06 -7.53929e-05 1.76497e-06 -0.000219981 -7.53929e-05 -0.000328175 -0.000299461 -6.03367e-05 -0.000275563 9.93839e-07 -6.03367e-05 3.19004e-06 9.93839e-07 8.94253e-05 -0.000275563 9.93839e-07 -2.33938e-05 0.000228415 9.93839e-07 8.94253e-05 0.000228415 0.000356232 3.19004e-06 -7.53929e-05 8.94253e-05 1.28234e-05 -7.53929e-05 -0.000328175 1.28234e-05 -0.000238131 8.94253e-05 1.28234e-05 0.000356232 0.000279437 1.28234e-05 -0.000238131 0.000279437 2.59639e-05 4.29518e-06 -0.00047744 -0.000219981 -0.000607702 -0.00047744 -0.0011641 -0.000607702 -0.00115689 -0.000219981 -0.000607702 -0.000328175 -0.000756693 -0.000607702 -0.00115689 -0.000756693 -0.00135897 -0.0011641 -0.00204228 -0.00115689 -0.00185941 -0.00204228 -0.00309939 -0.00185941 -0.00270593 -0.00115689 -0.00185941 -0.00135897 -0.00212799 -0.00185941 -0.00270593 -0.00212799 -0.00305432 -0.000328175 -0.000756693 -0.000238131 -0.000661973 -0.000756693 -0.00135897 -0.000661973 -0.00125587 -0.000238131 -0.000661973 2.59639e-05 -0.000406478 -0.000661973 -0.00125587 -0.000406478 -0.00101244 -0.00135897 -0.00212799 -0.00125587 -0.0020135 -0.00212799 -0.00305432 -0.0020135 -0.00292611 -0.00125587 -0.0020135 -0.00101244 -0.00178546 -0.0020135 -0.00292611 -0.00178546 -0.0027166 -2.33938e-05 0.000228415 0.000455825 0.000632601 0.000228415 0.000356232 0.000632601 0.0008128 0.000455825 0.000632601 0.00115924 0.00121956 0.000632601 0.0008128 0.00121956 0.00146875 0.000356232 0.000279437 0.0008128 0.000730634 0.000279437 2.59639e-05 0.000730634 0.000474176 0.0008128 0.000730634 0.00146875 0.00137494 0.000730634 0.000474176 0.00137494 0.00111232 0.00115924 0.00121956 0.00209131 0.00199576 0.00121956 0.00146875 0.00199576 0.00233316 0.00209131 0.00199576 0.00326226 0.00297059 0.00199576 0.00233316 0.00297059 0.00341734 0.00146875 0.00137494 0.00233316 0.00222181 0.00137494 0.00111232 0.00222181 0.00194976 0.00233316 0.00222181 0.00341734 0.00328274 0.00222181 0.00194976 0.00328274 0.00299781 2.59639e-05 -0.000406478 0.000474176 3.03651e-05 -0.000406478 -0.00101244 3.03651e-05 -0.000592208 0.000474176 3.03651e-05 0.00111232 0.000651234 3.03651e-05 -0.000592208 0.000651234 3.95445e-06 -0.00101244 -0.00178546 -0.000592208 -0.00138693 -0.00178546 -0.0027166 -0.00138693 -0.00234434 -0.000592208 -0.00138693 3.95445e-06 -0.000822898 -0.00138693 -0.00234434 -0.000822898 -0.00181921 0.00111232 0.000651234 0.00194976 0.00146525 0.000651234 3.95445e-06 0.00146525 0.00078512 0.00194976 0.00146525 0.00299781 0.00248318 0.00146525 0.00078512 0.00248318 0.00176135 3.95445e-06 -0.000822898 0.00078512 -8.41418e-05 -0.000822898 -0.00181921 -8.41418e-05 -0.00113168 0.00078512 -8.41418e-05 0.00176135 0.000838585 -8.41418e-05 -0.00113168 0.000838585 -0.000273321 -0.00309939 -0.00432193 -0.00270593 -0.0036857 -0.00432193 -0.00569487 -0.0036857 -0.00478673 -0.00270593 -0.0036857 -0.00305432 -0.00412659 -0.0036857 -0.00478673 -0.00412659 -0.00533175 -0.00569487 -0.00720155 -0.00478673 -0.00599563 -0.00720155 -0.0088238 -0.00599563 -0.00729774 -0.00478673 -0.00599563 -0.00533175 -0.0066552 -0.00599563 -0.00729774 -0.0066552 -0.0080809 -0.00305432 -0.00412659 -0.00292611 -0.00398275 -0.00412659 -0.00533175 -0.00398275 -0.00517068 -0.00292611 -0.00398275 -0.0027166 -0.00379483 -0.00398275 -0.00517068 -0.00379483 -0.00500721 -0.00533175 -0.0066552 -0.00517068 -0.00647563 -0.0066552 -0.0080809 -0.00647563 -0.00788182 -0.00517068 -0.00647563 -0.00500721 -0.00633929 -0.00647563 -0.00788182 -0.00633929 -0.00777502 -0.0088238 -0.0105421 -0.00729774 -0.00867735 -0.0105421 -0.0123356 -0.00867735 -0.0101177 -0.00729774 -0.00867735 -0.0080809 -0.00959166 -0.00867735 -0.0101177 -0.00959166 -0.0111691 -0.0123356 -0.0141825 -0.0101177 -0.0116011 -0.0141825 -0.0160602 -0.0116011 -0.0131095 -0.0101177 -0.0116011 -0.0111691 -0.0127939 -0.0116011 -0.0131095 -0.0127939 -0.0144461 -0.0080809 -0.00959166 -0.00788182 -0.00937233 -0.00959166 -0.0111691 -0.00937233 -0.010929 -0.00788182 -0.00937233 -0.00777502 -0.00929717 -0.00937233 -0.010929 -0.00929717 -0.0108873 -0.0111691 -0.0127939 -0.010929 -0.0125329 -0.0127939 -0.0144461 -0.0125329 -0.0141643 -0.010929 -0.0125329 -0.0108873 -0.012526 -0.0125329 -0.0141643 -0.012526 -0.0141933 -0.0027166 -0.00379483 -0.00234434 -0.00345316 -0.00379483 -0.00500721 -0.00345316 -0.00470014 -0.00234434 -0.00345316 -0.00181921 -0.00297319 -0.00345316 -0.00470014 -0.00297319 -0.00427107 -0.00500721 -0.00633929 -0.00470014 -0.00607042 -0.00633929 -0.00777502 -0.00607042 -0.00754758 -0.00470014 -0.00607042 -0.00427107 -0.0056974 -0.00607042 -0.00754758 -0.0056974 -0.0072352 -0.00181921 -0.00297319 -0.00113168 -0.00234497 -0.00297319 -0.00427107 -0.00234497 -0.00370953 -0.00113168 -0.00234497 -0.000273321 -0.00156098 -0.00234497 -0.00370953 -0.00156098 -0.00300905 -0.00427107 -0.0056974 -0.00370953 -0.00520918 -0.0056974 -0.0072352 -0.00520918 -0.00682612 -0.00370953 -0.00520918 -0.00300905 -0.00460034 -0.00520918 -0.00682612 -0.00460034 -0.00631605 -0.00777502 -0.00929717 -0.00754758 -0.00911399 -0.00929717 -0.0108873 -0.00911399 -0.0107508 -0.00754758 -0.00911399 -0.0072352 -0.00886617 -0.00911399 -0.0107508 -0.00886617 -0.0105708 -0.0108873 -0.012526 -0.0107508 -0.0124381 -0.012526 -0.0141933 -0.0124381 -0.0141553 -0.0107508 -0.0124381 -0.0105708 -0.0123286 -0.0124381 -0.0141553 -0.0123286 -0.0141182 -0.0072352 -0.00886617 -0.00682612 -0.00854129 -0.00886617 -0.0105708 -0.00854129 -0.0103343 -0.00682612 -0.00854129 -0.00631605 -0.00813612 -0.00854129 -0.0103343 -0.00813612 -0.0100391 -0.0105708 -0.0123286 -0.0103343 -0.0121838 -0.0123286 -0.0141182 -0.0121838 -0.0140676 -0.0103343 -0.0121838 -0.0100391 -0.0120027 -0.0121838 -0.0140676 -0.0120027 -0.0140036 0.00326226 0.00297059 0.00468669 0.0041564 0.00297059 0.00341734 0.0041564 0.00473535 0.00468669 0.0041564 0.00638307 0.00556869 0.0041564 0.00473535 0.00556869 0.00630463 0.00341734 0.00328274 0.00473535 0.00457177 0.00328274 0.00299781 0.00457177 0.00427034 0.00473535 0.00457177 0.00630463 0.006106 0.00457177 0.00427034 0.006106 0.00578422 0.00638307 0.00556869 0.00837371 0.00722628 0.00556869 0.00630463 0.00722628 0.0081462 0.00837371 0.00722628 0.0106852 0.00915161 0.00722628 0.0081462 0.00915161 0.0102851 0.00630463 0.006106 0.0081462 0.00790595 0.006106 0.00578422 0.00790595 0.0075596 0.0081462 0.00790595 0.0102851 0.00999612 0.00790595 0.0075596 0.00999612 0.00962034 0.00299781 0.00248318 0.00427034 0.00371849 0.00248318 0.00176135 0.00371849 0.00294551 0.00427034 0.00371849 0.00578422 0.00518736 0.00371849 0.00294551 0.00518736 0.00435287 0.00176135 0.000838585 0.00294551 0.00195735 0.000838585 -0.000273321 0.00195735 0.000767014 0.00294551 0.00195735 0.00435287 0.00328641 0.00195735 0.000767014 0.00328641 0.00200247 0.00578422 0.00518736 0.0075596 0.00690914 0.00518736 0.00435287 0.00690914 0.00600172 0.0075596 0.00690914 0.00962034 0.00890665 0.00690914 0.00600172 0.00890665 0.00791353 0.00435287 0.00328641 0.00600172 0.00484281 0.00328641 0.00200247 0.00484281 0.00344876 0.00600172 0.00484281 0.00791353 0.00664641 0.00484281 0.00344876 0.00664641 0.00512395 0.0106852 0.00915161 0.0133491 0.0113712 0.00915161 0.0102851 0.0113712 0.0127511 0.0133491 0.0113712 0.0164023 0.0139167 0.0113712 0.0127511 0.0139167 0.0155795 0.0102851 0.00999612 0.0127511 0.0124054 0.00999612 0.00962034 0.0124054 0.0119946 0.0127511 0.0124054 0.0155795 0.015168 0.0124054 0.0119946 0.015168 0.0147155 0.0164023 0.0139167 0.0198884 0.0168253 0.0139167 0.0155795 0.0168253 0.0188119 0.0198884 0.0168253 0.0238591 0.0201416 0.0168253 0.0188119 0.0201416 0.0224983 0.0155795 0.015168 0.0188119 0.0183245 0.015168 0.0147155 0.0183245 0.0178218 0.0188119 0.0183245 0.0224983 0.0219229 0.0183245 0.0178218 0.0219229 0.0213597 0.00962034 0.00890665 0.0119946 0.0112066 0.00890665 0.00791353 0.0112066 0.0101132 0.0119946 0.0112066 0.0147155 0.0138402 0.0112066 0.0101132 0.0138402 0.0126297 0.00791353 0.00664641 0.0101132 0.00872012 0.00664641 0.00512395 0.00872012 0.00704875 0.0101132 0.00872012 0.0126297 0.0110901 0.00872012 0.00704875 0.0110901 0.00924667 0.0147155 0.0138402 0.0178218 0.0168438 0.0138402 0.0126297 0.0168438 0.0154961 0.0178218 0.0168438 0.0213597 0.0202599 0.0168438 0.0154961 0.0202599 0.0187508 0.0126297 0.0110901 0.0154961 0.0137862 0.0110901 0.00924667 0.0137862 0.011744 0.0154961 0.0137862 0.0187508 0.0168422 0.0137862 0.011744 0.0168422 0.0145699 -0.000273321 -0.00156098 0.000767014 -0.000611072 -0.00156098 -0.00300905 -0.000611072 -0.00216036 0.000767014 -0.000611072 0.00200247 0.000516772 -0.000611072 -0.00216036 0.000516772 -0.00115269 -0.00300905 -0.00460034 -0.00216036 -0.00386253 -0.00460034 -0.00631605 -0.00386253 -0.00569757 -0.00216036 -0.00386253 -0.00115269 -0.00298618 -0.00386253 -0.00569757 -0.00298618 -0.00496227 0.00200247 0.000516772 0.00344876 0.00183686 0.000516772 -0.00115269 0.00183686 2.67929e-05 0.00344876 0.00183686 0.00512395 0.00336542 0.00183686 2.67929e-05 0.00336542 0.00139261 -0.00115269 -0.00298618 2.67929e-05 -0.00195992 -0.00298618 -0.00496227 -0.00195992 -0.00410026 2.67929e-05 -0.00195992 0.00139261 -0.000770931 -0.00195992 -0.00410026 -0.000770931 -0.00310028 -0.00631605 -0.00813612 -0.00569757 -0.00764418 -0.00813612 -0.0100391 -0.00764418 -0.0096798 -0.00569757 -0.00764418 -0.00496227 -0.00705828 -0.00764418 -0.0096798 -0.00705828 -0.00925033 -0.0100391 -0.0120027 -0.0096798 -0.0117809 -0.0120027 -0.0140036 -0.0117809 -0.0139228 -0.0096798 -0.0117809 -0.00925033 -0.0115135 -0.0117809 -0.0139228 -0.0115135 -0.0138218 -0.00496227 -0.00705828 -0.00410026 -0.00636996 -0.00705828 -0.00925033 -0.00636996 -0.00874355 -0.00410026 -0.00636996 -0.00310028 -0.00556937 -0.00636996 -0.00874355 -0.00556937 -0.00815109 -0.00925033 -0.0115135 -0.00874355 -0.0111947 -0.0115135 -0.0138218 -0.0111947 -0.013696 -0.00874355 -0.0111947 -0.00815109 -0.0108176 -0.0111947 -0.013696 -0.0108176 -0.0135401 0.00512395 0.00336542 0.00704875 0.00512097 0.00336542 0.00139261 0.00512097 0.00296111 0.00704875 0.00512097 0.00924667 0.00712433 0.00512097 0.00296111 0.00712433 0.0047506 0.00139261 -0.000770931 0.00296111 0.000595155 -0.000770931 -0.00310028 0.000595155 -0.00194979 0.00296111 0.000595155 0.0047506 0.00215432 0.000595155 -0.00194979 0.00215432 -0.000634816 0.00924667 0.00712433 0.011744 0.00939839 0.00712433 0.0047506 0.00939839 0.00678086 0.011744 0.00939839 0.0145699 0.0119682 0.00939839 0.00678086 0.0119682 0.00907314 0.0047506 0.00215432 0.00678086 0.00392367 0.00215432 -0.000634816 0.00392367 0.000859421 0.00678086 0.00392367 0.00907314 0.00592129 0.00392367 0.000859421 0.00592129 0.00254851 -0.00310028 -0.00556937 -0.00194979 -0.00464562 -0.00556937 -0.00815109 -0.00464562 -0.00746361 -0.00194979 -0.00464562 -0.000634816 -0.00358659 -0.00464562 -0.00746361 -0.00358659 -0.00667054 -0.00815109 -0.0108176 -0.00746361 -0.0103743 -0.0108176 -0.0135401 -0.0103743 -0.0133475 -0.00746361 -0.0103743 -0.00667054 -0.0098557 -0.0103743 -0.0133475 -0.0098557 -0.0131106 -0.000634816 -0.00358659 0.000859421 -0.00237935 -0.00358659 -0.00667054 -0.00237935 -0.00576041 0.000859421 -0.00237935 0.00254851 -0.00101021 -0.00237935 -0.00576041 -0.00101021 -0.00472091 -0.00667054 -0.0098557 -0.00576041 -0.0092515 -0.0098557 -0.0131106 -0.0092515 -0.0128202 -0.00576041 -0.0092515 -0.00472091 -0.00855041 -0.0092515 -0.0128202 -0.00855041 -0.0124658 -0.0160602 -0.0179454 -0.0131095 -0.014624 -0.0179454 -0.0198147 -0.014624 -0.0161257 -0.0131095 -0.014624 -0.0144461 -0.0161052 -0.014624 -0.0161257 -0.0161052 -0.0177502 -0.0198147 -0.0216442 -0.0161257 -0.0175955 -0.0216442 -0.0234105 -0.0175955 -0.0190143 -0.0161257 -0.0175955 -0.0177502 -0.0193602 -0.0175955 -0.0190143 -0.0193602 -0.0209145 -0.0144461 -0.0161052 -0.0141643 -0.0158028 -0.0161052 -0.0177502 -0.0158028 -0.0174279 -0.0141643 -0.0158028 -0.0141933 -0.0158684 -0.0158028 -0.0174279 -0.0158684 -0.0175302 -0.0177502 -0.0193602 -0.0174279 -0.0190187 -0.0193602 -0.0209145 -0.0190187 -0.0205547 -0.0174279 -0.0190187 -0.0175302 -0.0191575 -0.0190187 -0.0205547 -0.0191575 -0.0207293 -0.0234105 -0.0250905 -0.0190143 -0.0203636 -0.0250905 -0.026662 -0.0203636 -0.0216254 -0.0190143 -0.0203636 -0.0209145 -0.0223925 -0.0203636 -0.0216254 -0.0223925 -0.0237745 -0.026662 -0.0281037 -0.0216254 -0.0227825 -0.0281037 -0.0293956 -0.0227825 -0.0238189 -0.0216254 -0.0227825 -0.0237745 -0.0250418 -0.0227825 -0.0238189 -0.0250418 -0.0261768 -0.0209145 -0.0223925 -0.0205547 -0.0220156 -0.0223925 -0.0237745 -0.0220156 -0.0233819 -0.0205547 -0.0220156 -0.0207293 -0.0222248 -0.0220156 -0.0233819 -0.0222248 -0.0236238 -0.0237745 -0.0250418 -0.0233819 -0.0246348 -0.0250418 -0.0261768 -0.0246348 -0.0257572 -0.0233819 -0.0246348 -0.0236238 -0.0249073 -0.0246348 -0.0257572 -0.0249073 -0.0260572 -0.0141933 -0.0158684 -0.0141553 -0.0158813 -0.0158684 -0.0175302 -0.0158813 -0.0175943 -0.0141553 -0.0158813 -0.0141182 -0.0159177 -0.0158813 -0.0175943 -0.0159177 -0.0177046 -0.0175302 -0.0191575 -0.0175943 -0.0192725 -0.0191575 -0.0207293 -0.0192725 -0.0208942 -0.0175943 -0.0192725 -0.0177046 -0.0194563 -0.0192725 -0.0208942 -0.0194563 -0.0211501 -0.0141182 -0.0159177 -0.0140676 -0.0159628 -0.0159177 -0.0177046 -0.0159628 -0.0178459 -0.0140676 -0.0159628 -0.0140036 -0.0160177 -0.0159628 -0.0178459 -0.0160177 -0.0180204 -0.0177046 -0.0194563 -0.0178459 -0.0196931 -0.0194563 -0.0211501 -0.0196931 -0.0214806 -0.0178459 -0.0196931 -0.0180204 -0.0199866 -0.0196931 -0.0214806 -0.0199866 -0.0218911 -0.0207293 -0.0222248 -0.0208942 -0.022438 -0.0222248 -0.0236238 -0.022438 -0.023883 -0.0208942 -0.022438 -0.0211501 -0.0227635 -0.022438 -0.023883 -0.0227635 -0.0242747 -0.0236238 -0.0249073 -0.023883 -0.0252091 -0.0249073 -0.0260572 -0.0252091 -0.0263979 -0.023883 -0.0252091 -0.0242747 -0.0256626 -0.0252091 -0.0263979 -0.0256626 -0.0269074 -0.0211501 -0.0227635 -0.0214806 -0.0231847 -0.0227635 -0.0242747 -0.0231847 -0.0247823 -0.0214806 -0.0231847 -0.0218911 -0.0237087 -0.0231847 -0.0247823 -0.0237087 -0.0254144 -0.0242747 -0.0256626 -0.0247823 -0.0262508 -0.0256626 -0.0269074 -0.0262508 -0.0275692 -0.0247823 -0.0262508 -0.0254144 -0.0269842 -0.0262508 -0.0275692 -0.0269842 -0.0283949 -0.0293956 -0.0305195 -0.0238189 -0.0247196 -0.0305195 -0.031458 -0.0247196 -0.0254725 -0.0238189 -0.0247196 -0.0261768 -0.0271633 -0.0247196 -0.0254725 -0.0271633 -0.0279878 -0.031458 -0.032199 -0.0254725 -0.0260601 -0.032199 -0.0327107 -0.0260601 -0.0265031 -0.0254725 -0.0260601 -0.0279878 -0.0286338 -0.0260601 -0.0265031 -0.0286338 -0.0291166 -0.0261768 -0.0271633 -0.0257572 -0.0267327 -0.0271633 -0.0279878 -0.0267327 -0.0275484 -0.0257572 -0.0267327 -0.0260572 -0.027057 -0.0267327 -0.0275484 -0.027057 -0.0278933 -0.0279878 -0.0286338 -0.0275484 -0.0281876 -0.0286338 -0.0291166 -0.0281876 -0.028668 -0.0275484 -0.0281876 -0.0278933 -0.0285491 -0.0281876 -0.028668 -0.0285491 -0.0290412 -0.0327107 -0.0330557 -0.0265031 -0.0266401 -0.0330557 -0.0331097 -0.0266401 -0.0272747 -0.0265031 -0.0266401 -0.0291166 -0.0292971 -0.0266401 -0.0272747 -0.0292971 -0.0299156 -0.0331097 -0.031342 -0.0272747 -0.0244874 -0.031342 -0.0342614 -0.0244874 -0.0310712 -0.0272747 -0.0244874 -0.0299156 -0.0271572 -0.0244874 -0.0310712 -0.0271572 -0.0325133 -0.0291166 -0.0292971 -0.028668 -0.0288427 -0.0292971 -0.0299156 -0.0288427 -0.0294857 -0.028668 -0.0288427 -0.0290412 -0.0292226 -0.0288427 -0.0294857 -0.0292226 -0.0298623 -0.0299156 -0.0271572 -0.0294857 -0.0266638 -0.0271572 -0.0325133 -0.0266638 -0.0325373 -0.0294857 -0.0266638 -0.0298623 -0.0270102 -0.0266638 -0.0325373 -0.0270102 -0.0327472 -0.0260572 -0.027057 -0.0263979 -0.0274319 -0.027057 -0.0278933 -0.0274319 -0.0282971 -0.0263979 -0.0274319 -0.0269074 -0.027991 -0.0274319 -0.0282971 -0.027991 -0.0288978 -0.0278933 -0.0285491 -0.0282971 -0.0289756 -0.0285491 -0.0290412 -0.0289756 -0.029484 -0.0282971 -0.0289756 -0.0288978 -0.0296092 -0.0289756 -0.029484 -0.0296092 -0.030141 -0.0269074 -0.027991 -0.0275692 -0.0287175 -0.027991 -0.0288978 -0.0287175 -0.0296791 -0.0275692 -0.0287175 -0.0283949 -0.0296249 -0.0287175 -0.0296791 -0.0296249 -0.0306559 -0.0288978 -0.0296092 -0.0296791 -0.0304338 -0.0296092 -0.030141 -0.0304338 -0.0309972 -0.0296791 -0.0304338 -0.0306559 -0.0314656 -0.0304338 -0.0309972 -0.0314656 -0.0320695 -0.0290412 -0.0292226 -0.029484 -0.0296711 -0.0292226 -0.0298623 -0.0296711 -0.0303187 -0.029484 -0.0296711 -0.030141 -0.0303383 -0.0296711 -0.0303187 -0.0303383 -0.0309996 -0.0298623 -0.0270102 -0.0303187 -0.0274081 -0.0270102 -0.0327472 -0.0274081 -0.0332556 -0.0303187 -0.0274081 -0.0309996 -0.0280192 -0.0274081 -0.0332556 -0.0280192 -0.0339801 -0.030141 -0.0303383 -0.0309972 -0.0312091 -0.0303383 -0.0309996 -0.0312091 -0.0318909 -0.0309972 -0.0312091 -0.0320695 -0.0323009 -0.0312091 -0.0318909 -0.0323009 -0.0330099 -0.0309996 -0.0280192 -0.0318909 -0.0288202 -0.0280192 -0.0339801 -0.0288202 -0.0349421 -0.0318909 -0.0288202 -0.0330099 -0.0298274 -0.0288202 -0.0349421 -0.0298274 -0.0361501 -0.0140036 -0.0160177 -0.0139228 -0.0160804 -0.0160177 -0.0180204 -0.0160804 -0.0182274 -0.0139228 -0.0160804 -0.0138218 -0.0161485 -0.0160804 -0.0182274 -0.0161485 -0.0184662 -0.0180204 -0.0199866 -0.0182274 -0.0203375 -0.0199866 -0.0218911 -0.0203375 -0.0223836 -0.0182274 -0.0203375 -0.0184662 -0.0207466 -0.0203375 -0.0223836 -0.0207466 -0.0229608 -0.0138218 -0.0161485 -0.013696 -0.0162193 -0.0161485 -0.0184662 -0.0162193 -0.0187354 -0.013696 -0.0162193 -0.0135401 -0.0162888 -0.0162193 -0.0187354 -0.0162888 -0.0190329 -0.0184662 -0.0207466 -0.0187354 -0.0212143 -0.0207466 -0.0229608 -0.0212143 -0.0236252 -0.0187354 -0.0212143 -0.0190329 -0.0217407 -0.0212143 -0.0236252 -0.0217407 -0.0243791 -0.0218911 -0.0237087 -0.0223836 -0.0243388 -0.0237087 -0.0254144 -0.0243388 -0.0261762 -0.0223836 -0.0243388 -0.0229608 -0.0250798 -0.0243388 -0.0261762 -0.0250798 -0.0270745 -0.0254144 -0.0269842 -0.0261762 -0.0278694 -0.0269842 -0.0283949 -0.0278694 -0.0293932 -0.0261762 -0.0278694 -0.0270745 -0.0289157 -0.0278694 -0.0293932 -0.0289157 -0.0305756 -0.0229608 -0.0250798 -0.0236252 -0.0259366 -0.0250798 -0.0270745 -0.0259366 -0.0281166 -0.0236252 -0.0259366 -0.0243791 -0.026914 -0.0259366 -0.0281166 -0.026914 -0.0293103 -0.0270745 -0.0289157 -0.0281166 -0.0301331 -0.0289157 -0.0305756 -0.0301331 -0.0319548 -0.0281166 -0.0301331 -0.0293103 -0.0315326 -0.0301331 -0.0319548 -0.0315326 -0.0335453 -0.0135401 -0.0162888 -0.0133475 -0.016352 -0.0162888 -0.0190329 -0.016352 -0.0193556 -0.0133475 -0.016352 -0.0131106 -0.0164028 -0.016352 -0.0193556 -0.0164028 -0.0196989 -0.0190329 -0.0217407 -0.0193556 -0.0223246 -0.0217407 -0.0243791 -0.0223246 -0.0252237 -0.0193556 -0.0223246 -0.0196989 -0.0229636 -0.0223246 -0.0252237 -0.0229636 -0.0261594 -0.0131106 -0.0164028 -0.0128202 -0.0164333 -0.0164028 -0.0196989 -0.0164333 -0.0200564 -0.0128202 -0.0164333 -0.0124658 -0.0164336 -0.0164333 -0.0200564 -0.0164336 -0.0204193 -0.0196989 -0.0229636 -0.0200564 -0.0236531 -0.0229636 -0.0261594 -0.0236531 -0.0271842 -0.0200564 -0.0236531 -0.0204193 -0.024386 -0.0236531 -0.0271842 -0.024386 -0.0282932 -0.0243791 -0.026914 -0.0252237 -0.0280162 -0.026914 -0.0293103 -0.0280162 -0.0306635 -0.0252237 -0.0280162 -0.0261594 -0.0292468 -0.0280162 -0.0306635 -0.0292468 -0.0321835 -0.0293103 -0.0315326 -0.0306635 -0.0331259 -0.0315326 -0.0335453 -0.0331259 -0.0353632 -0.0306635 -0.0331259 -0.0321835 -0.0349252 -0.0331259 -0.0353632 -0.0349252 -0.0374256 -0.0261594 -0.0292468 -0.0271842 -0.0306073 -0.0292468 -0.0321835 -0.0306073 -0.0338764 -0.0271842 -0.0306073 -0.0282932 -0.0320963 -0.0306073 -0.0338764 -0.0320963 -0.0357455 -0.0321835 -0.0349252 -0.0338764 -0.0369417 -0.0349252 -0.0374256 -0.