# vtk DataFile Version 3.0
#This file was generated by the deal.II library on 2026/1/5 at 14:19:35
ASCII
DATASET UNSTRUCTURED_GRID

POINTS 4096 double
0 0 0
0.03125 0 0
0 0.03125 0
0.03125 0.03125 0
0.03125 0 0
0.0625 0 0
0.03125 0.03125 0
0.0625 0.03125 0
0 0.03125 0
0.03125 0.03125 0
0 0.0625 0
0.03125 0.0625 0
0.03125 0.03125 0
0.0625 0.03125 0
0.03125 0.0625 0
0.0625 0.0625 0
0.0625 0 0
0.09375 0 0
0.0625 0.03125 0
0.09375 0.03125 0
0.09375 0 0
0.125 0 0
0.09375 0.03125 0
0.125 0.03125 0
0.0625 0.03125 0
0.09375 0.03125 0
0.0625 0.0625 0
0.09375 0.0625 0
0.09375 0.03125 0
0.125 0.03125 0
0.09375 0.0625 0
0.125 0.0625 0
0 0.0625 0
0.03125 0.0625 0
0 0.09375 0
0.03125 0.09375 0
0.03125 0.0625 0
0.0625 0.0625 0
0.03125 0.09375 0
0.0625 0.09375 0
0 0.09375 0
0.03125 0.09375 0
0 0.125 0
0.03125 0.125 0
0.03125 0.09375 0
0.0625 0.09375 0
0.03125 0.125 0
0.0625 0.125 0
0.0625 0.0625 0
0.09375 0.0625 0
0.0625 0.09375 0
0.09375 0.09375 0
0.09375 0.0625 0
0.125 0.0625 0
0.09375 0.09375 0
0.125 0.09375 0
0.0625 0.09375 0
0.09375 0.09375 0
0.0625 0.125 0
0.09375 0.125 0
0.09375 0.09375 0
0.125 0.09375 0
0.09375 0.125 0
0.125 0.125 0
0.125 0 0
0.15625 0 0
0.125 0.03125 0
0.15625 0.03125 0
0.15625 0 0
0.1875 0 0
0.15625 0.03125 0
0.1875 0.03125 0
0.125 0.03125 0
0.15625 0.03125 0
0.125 0.0625 0
0.15625 0.0625 0
0.15625 0.03125 0
0.1875 0.03125 0
0.15625 0.0625 0
0.1875 0.0625 0
0.1875 0 0
0.21875 0 0
0.1875 0.03125 0
0.21875 0.03125 0
0.21875 0 0
0.25 0 0
0.21875 0.03125 0
0.25 0.03125 0
0.1875 0.03125 0
0.21875 0.03125 0
0.1875 0.0625 0
0.21875 0.0625 0
0.21875 0.03125 0
0.25 0.03125 0
0.21875 0.0625 0
0.25 0.0625 0
0.125 0.0625 0
0.15625 0.0625 0
0.125 0.09375 0
0.15625 0.09375 0
0.15625 0.0625 0
0.1875 0.0625 0
0.15625 0.09375 0
0.1875 0.09375 0
0.125 0.09375 0
0.15625 0.09375 0
0.125 0.125 0
0.15625 0.125 0
0.15625 0.09375 0
0.1875 0.09375 0
0.15625 0.125 0
0.1875 0.125 0
0.1875 0.0625 0
0.21875 0.0625 0
0.1875 0.09375 0
0.21875 0.09375 0
0.21875 0.0625 0
0.25 0.0625 0
0.21875 0.09375 0
0.25 0.09375 0
0.1875 0.09375 0
0.21875 0.09375 0
0.1875 0.125 0
0.21875 0.125 0
0.21875 0.09375 0
0.25 0.09375 0
0.21875 0.125 0
0.25 0.125 0
0 0.125 0
0.03125 0.125 0
0 0.15625 0
0.03125 0.15625 0
0.03125 0.125 0
0.0625 0.125 0
0.03125 0.15625 0
0.0625 0.15625 0
0 0.15625 0
0.03125 0.15625 0
0 0.1875 0
0.03125 0.1875 0
0.03125 0.15625 0
0.0625 0.15625 0
0.03125 0.1875 0
0.0625 0.1875 0
0.0625 0.125 0
0.09375 0.125 0
0.0625 0.15625 0
0.09375 0.15625 0
0.09375 0.125 0
0.125 0.125 0
0.09375 0.15625 0
0.125 0.15625 0
0.0625 0.15625 0
0.09375 0.15625 0
0.0625 0.1875 0
0.09375 0.1875 0
0.09375 0.15625 0
0.125 0.15625 0
0.09375 0.1875 0
0.125 0.1875 0
0 0.1875 0
0.03125 0.1875 0
0 0.21875 0
0.03125 0.21875 0
0.03125 0.1875 0
0.0625 0.1875 0
0.03125 0.21875 0
0.0625 0.21875 0
0 0.21875 0
0.03125 0.21875 0
0 0.25 0
0.03125 0.25 0
0.03125 0.21875 0
0.0625 0.21875 0
0.03125 0.25 0
0.0625 0.25 0
0.0625 0.1875 0
0.09375 0.1875 0
0.0625 0.21875 0
0.09375 0.21875 0
0.09375 0.1875 0
0.125 0.1875 0
0.09375 0.21875 0
0.125 0.21875 0
0.0625 0.21875 0
0.09375 0.21875 0
0.0625 0.25 0
0.09375 0.25 0
0.09375 0.21875 0
0.125 0.21875 0
0.09375 0.25 0
0.125 0.25 0
0.125 0.125 0
0.15625 0.125 0
0.125 0.15625 0
0.15625 0.15625 0
0.15625 0.125 0
0.1875 0.125 0
0.15625 0.15625 0
0.1875 0.15625 0
0.125 0.15625 0
0.15625 0.15625 0
0.125 0.1875 0
0.15625 0.1875 0
0.15625 0.15625 0
0.1875 0.15625 0
0.15625 0.1875 0
0.1875 0.1875 0
0.1875 0.125 0
0.21875 0.125 0
0.1875 0.15625 0
0.21875 0.15625 0
0.21875 0.125 0
0.25 0.125 0
0.21875 0.15625 0
0.25 0.15625 0
0.1875 0.15625 0
0.21875 0.15625 0
0.1875 0.1875 0
0.21875 0.1875 0
0.21875 0.15625 0
0.25 0.15625 0
0.21875 0.1875 0
0.25 0.1875 0
0.125 0.1875 0
0.15625 0.1875 0
0.125 0.21875 0
0.15625 0.21875 0
0.15625 0.1875 0
0.1875 0.1875 0
0.15625 0.21875 0
0.1875 0.21875 0
0.125 0.21875 0
0.15625 0.21875 0
0.125 0.25 0
0.15625 0.25 0
0.15625 0.21875 0
0.1875 0.21875 0
0.15625 0.25 0
0.1875 0.25 0
0.1875 0.1875 0
0.21875 0.1875 0
0.1875 0.21875 0
0.21875 0.21875 0
0.21875 0.1875 0
0.25 0.1875 0
0.21875 0.21875 0
0.25 0.21875 0
0.1875 0.21875 0
0.21875 0.21875 0
0.1875 0.25 0
0.21875 0.25 0
0.21875 0.21875 0
0.25 0.21875 0
0.21875 0.25 0
0.25 0.25 0
0.25 0 0
0.28125 0 0
0.25 0.03125 0
0.28125 0.03125 0
0.28125 0 0
0.3125 0 0
0.28125 0.03125 0
0.3125 0.03125 0
0.25 0.03125 0
0.28125 0.03125 0
0.25 0.0625 0
0.28125 0.0625 0
0.28125 0.03125 0
0.3125 0.03125 0
0.28125 0.0625 0
0.3125 0.0625 0
0.3125 0 0
0.34375 0 0
0.3125 0.03125 0
0.34375 0.03125 0
0.34375 0 0
0.375 0 0
0.34375 0.03125 0
0.375 0.03125 0
0.3125 0.03125 0
0.34375 0.03125 0
0.3125 0.0625 0
0.34375 0.0625 0
0.34375 0.03125 0
0.375 0.03125 0
0.34375 0.0625 0
0.375 0.0625 0
0.25 0.0625 0
0.28125 0.0625 0
0.25 0.09375 0
0.28125 0.09375 0
0.28125 0.0625 0
0.3125 0.0625 0
0.28125 0.09375 0
0.3125 0.09375 0
0.25 0.09375 0
0.28125 0.09375 0
0.25 0.125 0
0.28125 0.125 0
0.28125 0.09375 0
0.3125 0.09375 0
0.28125 0.125 0
0.3125 0.125 0
0.3125 0.0625 0
0.34375 0.0625 0
0.3125 0.09375 0
0.34375 0.09375 0
0.34375 0.0625 0
0.375 0.0625 0
0.34375 0.09375 0
0.375 0.09375 0
0.3125 0.09375 0
0.34375 0.09375 0
0.3125 0.125 0
0.34375 0.125 0
0.34375 0.09375 0
0.375 0.09375 0
0.34375 0.125 0
0.375 0.125 0
0.375 0 0
0.40625 0 0
0.375 0.03125 0
0.40625 0.03125 0
0.40625 0 0
0.4375 0 0
0.40625 0.03125 0
0.4375 0.03125 0
0.375 0.03125 0
0.40625 0.03125 0
0.375 0.0625 0
0.40625 0.0625 0
0.40625 0.03125 0
0.4375 0.03125 0
0.40625 0.0625 0
0.4375 0.0625 0
0.4375 0 0
0.46875 0 0
0.4375 0.03125 0
0.46875 0.03125 0
0.46875 0 0
0.5 0 0
0.46875 0.03125 0
0.5 0.03125 0
0.4375 0.03125 0
0.46875 0.03125 0
0.4375 0.0625 0
0.46875 0.0625 0
0.46875 0.03125 0
0.5 0.03125 0
0.46875 0.0625 0
0.5 0.0625 0
0.375 0.0625 0
0.40625 0.0625 0
0.375 0.09375 0
0.40625 0.09375 0
0.40625 0.0625 0
0.4375 0.0625 0
0.40625 0.09375 0
0.4375 0.09375 0
0.375 0.09375 0
0.40625 0.09375 0
0.375 0.125 0
0.40625 0.125 0
0.40625 0.09375 0
0.4375 0.09375 0
0.40625 0.125 0
0.4375 0.125 0
0.4375 0.0625 0
0.46875 0.0625 0
0.4375 0.09375 0
0.46875 0.09375 0
0.46875 0.0625 0
0.5 0.0625 0
0.46875 0.09375 0
0.5 0.09375 0
0.4375 0.09375 0
0.46875 0.09375 0
0.4375 0.125 0
0.46875 0.125 0
0.46875 0.09375 0
0.5 0.09375 0
0.46875 0.125 0
0.5 0.125 0
0.25 0.125 0
0.28125 0.125 0
0.25 0.15625 0
0.28125 0.15625 0
0.28125 0.125 0
0.3125 0.125 0
0.28125 0.15625 0
0.3125 0.15625 0
0.25 0.15625 0
0.28125 0.15625 0
0.25 0.1875 0
0.28125 0.1875 0
0.28125 0.15625 0
0.3125 0.15625 0
0.28125 0.1875 0
0.3125 0.1875 0
0.3125 0.125 0
0.34375 0.125 0
0.3125 0.15625 0
0.34375 0.15625 0
0.34375 0.125 0
0.375 0.125 0
0.34375 0.15625 0
0.375 0.15625 0
0.3125 0.15625 0
0.34375 0.15625 0
0.3125 0.1875 0
0.34375 0.1875 0
0.34375 0.15625 0
0.375 0.15625 0
0.34375 0.1875 0
0.375 0.1875 0
0.25 0.1875 0
0.28125 0.1875 0
0.25 0.21875 0
0.28125 0.21875 0
0.28125 0.1875 0
0.3125 0.1875 0
0.28125 0.21875 0
0.3125 0.21875 0
0.25 0.21875 0
0.28125 0.21875 0
0.25 0.25 0
0.28125 0.25 0
0.28125 0.21875 0
0.3125 0.21875 0
0.28125 0.25 0
0.3125 0.25 0
0.3125 0.1875 0
0.34375 0.1875 0
0.3125 0.21875 0
0.34375 0.21875 0
0.34375 0.1875 0
0.375 0.1875 0
0.34375 0.21875 0
0.375 0.21875 0
0.3125 0.21875 0
0.34375 0.21875 0
0.3125 0.25 0
0.34375 0.25 0
0.34375 0.21875 0
0.375 0.21875 0
0.34375 0.25 0
0.375 0.25 0
0.375 0.125 0
0.40625 0.125 0
0.375 0.15625 0
0.40625 0.15625 0
0.40625 0.125 0
0.4375 0.125 0
0.40625 0.15625 0
0.4375 0.15625 0
0.375 0.15625 0
0.40625 0.15625 0
0.375 0.1875 0
0.40625 0.1875 0
0.40625 0.15625 0
0.4375 0.15625 0
0.40625 0.1875 0
0.4375 0.1875 0
0.4375 0.125 0
0.46875 0.125 0
0.4375 0.15625 0
0.46875 0.15625 0
0.46875 0.125 0
0.5 0.125 0
0.46875 0.15625 0
0.5 0.15625 0
0.4375 0.15625 0
0.46875 0.15625 0
0.4375 0.1875 0
0.46875 0.1875 0
0.46875 0.15625 0
0.5 0.15625 0
0.46875 0.1875 0
0.5 0.1875 0
0.375 0.1875 0
0.40625 0.1875 0
0.375 0.21875 0
0.40625 0.21875 0
0.40625 0.1875 0
0.4375 0.1875 0
0.40625 0.21875 0
0.4375 0.21875 0
0.375 0.21875 0
0.40625 0.21875 0
0.375 0.25 0
0.40625 0.25 0
0.40625 0.21875 0
0.4375 0.21875 0
0.40625 0.25 0
0.4375 0.25 0
0.4375 0.1875 0
0.46875 0.1875 0
0.4375 0.21875 0
0.46875 0.21875 0
0.46875 0.1875 0
0.5 0.1875 0
0.46875 0.21875 0
0.5 0.21875 0
0.4375 0.21875 0
0.46875 0.21875 0
0.4375 0.25 0
0.46875 0.25 0
0.46875 0.21875 0
0.5 0.21875 0
0.46875 0.25 0
0.5 0.25 0
0 0.25 0
0.03125 0.25 0
0 0.28125 0
0.03125 0.28125 0
0.03125 0.25 0
0.0625 0.25 0
0.03125 0.28125 0
0.0625 0.28125 0
0 0.28125 0
0.03125 0.28125 0
0 0.3125 0
0.03125 0.3125 0
0.03125 0.28125 0
0.0625 0.28125 0
0.03125 0.3125 0
0.0625 0.3125 0
0.0625 0.25 0
0.09375 0.25 0
0.0625 0.28125 0
0.09375 0.28125 0
0.09375 0.25 0
0.125 0.25 0
0.09375 0.28125 0
0.125 0.28125 0
0.0625 0.28125 0
0.09375 0.28125 0
0.0625 0.3125 0
0.09375 0.3125 0
0.09375 0.28125 0
0.125 0.28125 0
0.09375 0.3125 0
0.125 0.3125 0
0 0.3125 0
0.03125 0.3125 0
0 0.34375 0
0.03125 0.34375 0
0.03125 0.3125 0
0.0625 0.3125 0
0.03125 0.34375 0
0.0625 0.34375 0
0 0.34375 0
0.03125 0.34375 0
0 0.375 0
0.03125 0.375 0
0.03125 0.34375 0
0.0625 0.34375 0
0.03125 0.375 0
0.0625 0.375 0
0.0625 0.3125 0
0.09375 0.3125 0
0.0625 0.34375 0
0.09375 0.34375 0
0.09375 0.3125 0
0.125 0.3125 0
0.09375 0.34375 0
0.125 0.34375 0
0.0625 0.34375 0
0.09375 0.34375 0
0.0625 0.375 0
0.09375 0.375 0
0.09375 0.34375 0
0.125 0.34375 0
0.09375 0.375 0
0.125 0.375 0
0.125 0.25 0
0.15625 0.25 0
0.125 0.28125 0
0.15625 0.28125 0
0.15625 0.25 0
0.1875 0.25 0
0.15625 0.28125 0
0.1875 0.28125 0
0.125 0.28125 0
0.15625 0.28125 0
0.125 0.3125 0
0.15625 0.3125 0
0.15625 0.28125 0
0.1875 0.28125 0
0.15625 0.3125 0
0.1875 0.3125 0
0.1875 0.25 0
0.21875 0.25 0
0.1875 0.28125 0
0.21875 0.28125 0
0.21875 0.25 0
0.25 0.25 0
0.21875 0.28125 0
0.25 0.28125 0
0.1875 0.28125 0
0.21875 0.28125 0
0.1875 0.3125 0
0.21875 0.3125 0
0.21875 0.28125 0
0.25 0.28125 0
0.21875 0.3125 0
0.25 0.3125 0
0.125 0.3125 0
0.15625 0.3125 0
0.125 0.34375 0
0.15625 0.34375 0
0.15625 0.3125 0
0.1875 0.3125 0
0.15625 0.34375 0
0.1875 0.34375 0
0.125 0.34375 0
[...]
POINT_DATA 4096
SCALARS p double 1
LOOKUP_TABLE default
-1.1428e-05 7.48618e-05 -0.000104333 -1.95804e-05 7.48618e-05 0.000319999 -1.95804e-05 0.000112724 -0.000104333 -1.95804e-05 -0.000351329 -0.000149866 -1.95804e-05 0.000112724 -0.000149866 -1.47527e-05 0.000319999 0.000566742 0.000112724 0.000246097 0.000566742 0.000721109 0.000246097 0.000320177 0.000112724 0.000246097 -1.47527e-05 0.000109026 0.000246097 0.000320177 0.000109026 0.000161484 -0.000351329 -0.000149866 -0.000607515 -0.000284101 -0.000149866 -1.47527e-05 -0.000284101 -0.000131297 -0.000607515 -0.000284101 -0.000780437 -0.000360278 -0.000284101 -0.000131297 -0.000360278 -0.000173724 -1.47527e-05 0.000109026 -0.000131297 -2.72412e-06 0.000109026 0.000161484 -2.72412e-06 3.96589e-05 -0.000131297 -2.72412e-06 -0.000173724 -2.34905e-05 -2.72412e-06 3.96589e-05 -2.34905e-05 2.44396e-05 0.000721109 0.000742468 0.000320177 0.000307592 0.000742468 0.000619027 0.000307592 0.00019503 0.000320177 0.000307592 0.000161484 0.000127446 0.000307592 0.00019503 0.000127446 -5.82981e-06 0.000619027 0.000352057 0.00019503 -2.08235e-05 0.000352057 -5.11824e-05 -2.08235e-05 -0.000337925 0.00019503 -2.08235e-05 -5.82981e-06 -0.000242633 -2.08235e-05 -0.000337925 -0.000242633 -0.000582559 0.000161484 0.000127446 3.96589e-05 -3.11077e-06 0.000127446 -5.82981e-06 -3.11077e-06 -0.000139184 3.96589e-05 -3.11077e-06 2.44396e-05 -1.82297e-05 -3.11077e-06 -0.000139184 -1.82297e-05 -0.0001554 -5.82981e-06 -0.000242633 -0.000139184 -0.000371088 -0.000242633 -0.000582559 -0.000371088 -0.000698704 -0.000139184 -0.000371088 -0.0001554 -0.000387226 -0.000371088 -0.000698704 -0.000387226 -0.000712869 -0.000780437 -0.000360278 -0.000825773 -0.000346298 -0.000360278 -0.000173724 -0.000346298 -0.000120227 -0.000825773 -0.000346298 -0.000724204 -0.000222251 -0.000346298 -0.000120227 -0.000222251 4.99646e-05 -0.000173724 -2.34905e-05 -0.000120227 5.35359e-05 -2.34905e-05 2.44396e-05 5.35359e-05 0.000113194 -0.000120227 5.35359e-05 4.99646e-05 0.000245235 5.35359e-05 0.000113194 0.000245235 0.000319162 -0.000724204 -0.000222251 -0.000466491 2.39305e-05 -0.000222251 4.99646e-05 2.39305e-05 0.000351194 -0.000466491 2.39305e-05 -4.68462e-05 0.000401093 2.39305e-05 0.000351194 0.000401093 0.000795246 4.99646e-05 0.000245235 0.000351194 0.000564511 0.000245235 0.000319162 0.000564511 0.000653218 0.000351194 0.000564511 0.000795246 0.00102335 0.000564511 0.000653218 0.00102335 0.00112672 2.44396e-05 -1.82297e-05 0.000113194 7.55533e-05 -1.82297e-05 -0.0001554 7.55533e-05 -5.98229e-05 0.000113194 7.55533e-05 0.000319162 0.000288415 7.55533e-05 -5.98229e-05 0.000288415 0.000155333 -0.0001554 -0.000387226 -5.98229e-05 -0.000290977 -0.000387226 -0.000712869 -0.000290977 -0.000616113 -5.98229e-05 -0.000290977 0.000155333 -7.66085e-05 -0.000290977 -0.000616113 -7.66085e-05 -0.00040472 0.000319162 0.000288415 0.000653218 0.000629304 0.000288415 0.000155333 0.000629304 0.000497689 0.000653218 0.000629304 0.00112672 0.00110857 0.000629304 0.000497689 0.00110857 0.000976607 0.000155333 -7.66085e-05 0.000497689 0.000262751 -7.66085e-05 -0.00040472 0.000262751 -7.20762e-05 0.000497689 0.000262751 0.000976607 0.000735735 0.000262751 -7.20762e-05 0.000735735 0.000389989 -5.11824e-05 -0.00058112 -0.000337925 -0.000751369 -0.00058112 -0.00122741 -0.000751369 -0.00125464 -0.000337925 -0.000751369 -0.000582559 -0.0010221 -0.000751369 -0.00125464 -0.0010221 -0.00155565 -0.00122741 -0.00197937 -0.00125464 -0.00184024 -0.00197937 -0.00282582 -0.00184024 -0.00249979 -0.00125464 -0.00184024 -0.00155565 -0.00217614 -0.00184024 -0.00249979 -0.00217614 -0.00287518 -0.000582559 -0.0010221 -0.000698704 -0.00111951 -0.0010221 -0.00155565 -0.00111951 -0.00162906 -0.000698704 -0.00111951 -0.000712869 -0.00112989 -0.00111951 -0.00162906 -0.00112989 -0.00163437 -0.00155565 -0.00217614 -0.00162906 -0.00222143 -0.00217614 -0.00287518 -0.00222143 -0.00288919 -0.00162906 -0.00222143 -0.00163437 -0.00222102 -0.00222143 -0.00288919 -0.00222102 -0.00288303 -0.00282582 -0.0037548 -0.00249979 -0.00322401 -0.0037548 -0.00475317 -0.00322401 -0.0040025 -0.00249979 -0.00322401 -0.00287518 -0.00364321 -0.00322401 -0.0040025 -0.00364321 -0.00446927 -0.00475317 -0.00580639 -0.0040025 -0.00482371 -0.00580639 -0.00689834 -0.00482371 -0.00567482 -0.0040025 -0.00482371 -0.00446927 -0.00534105 -0.00482371 -0.00567482 -0.00534105 -0.00624484 -0.00287518 -0.00364321 -0.00288919 -0.00362363 -0.00364321 -0.00446927 -0.00362363 -0.00441452 -0.00288919 -0.00362363 -0.00288303 -0.0036122 -0.00362363 -0.00441452 -0.0036122 -0.00439873 -0.00446927 -0.00534105 -0.00441452 -0.00525022 -0.00534105 -0.00624484 -0.00525022 -0.00611763 -0.00441452 -0.00525022 -0.00439873 -0.00523134 -0.00525022 -0.00611763 -0.00523134 -0.0060971 -0.000712869 -0.00112989 -0.000616113 -0.00103257 -0.00112989 -0.00163437 -0.00103257 -0.00153664 -0.000616113 -0.00103257 -0.00040472 -0.000826012 -0.00103257 -0.00153664 -0.000826012 -0.00133684 -0.00163437 -0.00222102 -0.00153664 -0.00212346 -0.00222102 -0.00288303 -0.00212346 -0.00278675 -0.00153664 -0.00212346 -0.00133684 -0.00193263 -0.00212346 -0.00278675 -0.00193263 -0.00260748 -0.00040472 -0.000826012 -7.20762e-05 -0.000503501 -0.000826012 -0.00133684 -0.000503501 -0.00102793 -7.20762e-05 -0.000503501 0.000389989 -5.71464e-05 -0.000503501 -0.00102793 -5.71464e-05 -0.000602138 -0.00133684 -0.00193263 -0.00102793 -0.00164101 -0.00193263 -0.00260748 -0.00164101 -0.00233712 -0.00102793 -0.00164101 -0.000602138 -0.00124081 -0.00164101 -0.00233712 -0.00124081 -0.00196789 -0.00288303 -0.0036122 -0.00278675 -0.00351875 -0.0036122 -0.00439873 -0.00351875 -0.00431007 -0.00278675 -0.00351875 -0.00260748 -0.00335401 -0.00351875 -0.00431007 -0.00335401 -0.00416311 -0.00439873 -0.00523134 -0.00431007 -0.00514971 -0.00523134 -0.0060971 -0.00514971 -0.00602488 -0.00431007 -0.00514971 -0.00416311 -0.00502398 -0.00514971 -0.00602488 -0.00502398 -0.00592389 -0.00260748 -0.00335401 -0.00233712 -0.00310919 -0.00335401 -0.00416311 -0.00310919 -0.00394841 -0.00233712 -0.00310919 -0.00196789 -0.0027766 -0.00310919 -0.00394841 -0.0027766 -0.0036584 -0.00416311 -0.00502398 -0.00394841 -0.00484412 -0.00502398 -0.00592389 -0.00484412 -0.00578352 -0.00394841 -0.00484412 -0.0036584 -0.00460276 -0.00484412 -0.00578352 -0.00460276 -0.00559677 -4.68462e-05 0.000401093 0.000540695 0.000917348 0.000401093 0.000795246 0.000917348 0.00139307 0.000540695 0.000917348 0.00130414 0.00158168 0.000917348 0.00139307 0.00158168 0.00215632 0.000795246 0.00102335 0.00139307 0.0016334 0.00102335 0.00112672 0.0016334 0.00175139 0.00139307 0.0016334 0.00215632 0.00240721 0.0016334 0.00175139 0.00240721 0.00254012 0.00130414 0.00158168 0.00225445 0.00240488 0.00158168 0.00215632 0.00240488 0.0030983 0.00225445 0.00240488 0.00340592 0.00340029 0.00240488 0.0030983 0.00340029 0.00423496 0.00215632 0.00240721 0.0030983 0.00335883 0.00240721 0.00254012 0.00335883 0.00350753 0.0030983 0.00335883 0.00423496 0.00450482 0.00335883 0.00350753 0.00450482 0.00467069 0.00112672 0.00110857 0.00175139 0.00173758 0.00110857 0.000976607 0.00173758 0.001603 0.00175139 0.00173758 0.00254012 0.00252923 0.00173758 0.001603 0.00252923 0.00238967 0.000976607 0.000735735 0.001603 0.00135289 0.000735735 0.000389989 0.00135289 0.000991787 0.001603 0.00135289 0.00238967 0.00212689 0.00135289 0.000991787 0.00212689 0.001746 0.00254012 0.00252923 0.00350753 0.00349837 0.00252923 0.00238967 0.00349837 0.00335154 0.00350753 0.00349837 0.00467069 0.00466233 0.00349837 0.00335154 0.00466233 0.00450615 0.00238967 0.00212689 0.00335154 0.0030728 0.00212689 0.001746 0.0030728 0.00266786 0.00335154 0.0030728 0.00450615 0.00420833 0.0030728 0.00266786 0.00420833 0.00377543 0.00340592 0.00340029 0.00477647 0.00458408 0.00340029 0.00423496 0.00458408 0.00558535 0.00477647 0.00458408 0.006388 0.00597599 0.00458408 0.00558535 0.00597599 0.0071725 0.00423496 0.00450482 0.00558535 0.00586481 0.00450482 0.00467069 0.00586481 0.00604971 0.00558535 0.00586481 0.0071725 0.00746226 0.00586481 0.00604971 0.00746226 0.00766846 0.006388 0.00597599 0.00826686 0.00759979 0.00597599 0.0071725 0.00759979 0.00902415 0.00826686 0.00759979 0.0104446 0.00948434 0.00759979 0.00902415 0.00948434 0.011174 0.0071725 0.00746226 0.00902415 0.00932522 0.00746226 0.00766846 0.00932522 0.00955519 0.00902415 0.00932522 0.011174 0.0114877 0.00932522 0.00955519 0.0114877 0.0117437 0.00467069 0.00466233 0.00604971 0.00604141 0.00466233 0.00450615 0.00604141 0.00587394 0.00604971 0.00604141 0.00766846 0.00765953 0.00604141 0.00587394 0.00765953 0.00747884 0.00450615 0.00420833 0.00587394 0.00555418 0.00420833 0.00377543 0.00555418 0.00508979 0.00587394 0.00555418 0.00747884 0.00713436 0.00555418 0.00508979 0.00713436 0.00663522 0.00766846 0.00765953 0.00955519 0.00954473 0.00765953 0.00747884 0.00954473 0.00934857 0.00955519 0.00954473 0.0117437 0.01173 0.00954473 0.00934857 0.01173 0.0115153 0.00747884 0.00713436 0.00934857 0.00897638 0.00713436 0.00663522 0.00897638 0.00843935 0.00934857 0.00897638 0.0115153 0.0111118 0.00897638 0.00843935 0.0111118 0.0105333 0.000389989 -5.71464e-05 0.000991787 0.000523304 -5.71464e-05 -0.000602138 0.000523304 -4.91017e-05 0.000991787 0.000523304 0.001746 0.00125067 0.000523304 -4.91017e-05 0.00125067 0.000644248 -0.000602138 -0.00124081 -4.91017e-05 -0.00072151 -0.00124081 -0.00196789 -0.00072151 -0.00148901 -4.91017e-05 -0.00072151 0.000644248 -6.9678e-05 -0.00072151 -0.00148901 -6.9678e-05 -0.000886659 0.001746 0.00125067 0.00266786 0.00214054 0.00125067 0.000644248 0.00214054 0.00149397 0.00266786 0.00214054 0.00377543 0.00321142 0.00214054 0.00149397 0.00321142 0.00251922 0.000644248 -6.9678e-05 0.00149397 0.000731311 -6.9678e-05 -0.000886659 0.000731311 -0.000143573 0.00149397 0.000731311 0.00251922 0.00170142 0.000731311 -0.000143573 0.00170142 0.000761118 -0.00196789 -0.0027766 -0.00148901 -0.00234523 -0.0027766 -0.0036584 -0.00234523 -0.00328194 -0.00148901 -0.00234523 -0.000886659 -0.00180083 -0.00234523 -0.00328194 -0.00180083 -0.00280442 -0.0036584 -0.00460276 -0.00328194 -0.00428873 -0.00460276 -0.00559677 -0.00428873 -0.00535265 -0.00328194 -0.00428873 -0.00280442 -0.00388732 -0.00428873 -0.00535265 -0.00388732 -0.00503664 -0.000886659 -0.00180083 -0.000143573 -0.00112552 -0.00180083 -0.00280442 -0.00112552 -0.00220743 -0.000143573 -0.00112552 0.000761118 -0.000297445 -0.00112552 -0.00220743 -0.000297445 -0.00146816 -0.00280442 -0.00388732 -0.00220743 -0.00337972 -0.00388732 -0.00503664 -0.00337972 -0.00462983 -0.00220743 -0.00337972 -0.00146816 -0.00274233 -0.00337972 -0.00462983 -0.00274233 -0.00410809 0.00377543 0.00321142 0.00508979 0.00448499 0.00321142 0.00251922 0.00448499 0.00374247 0.00508979 0.00448499 0.00663522 0.00598609 0.00448499 0.00374247 0.00598609 0.00518943 0.00251922 0.00170142 0.00374247 0.00286412 0.00170142 0.000761118 0.00286412 0.00185207 0.00374247 0.00286412 0.00518943 0.00424634 0.00286412 0.00185207 0.00424634 0.00315774 0.00663522 0.00598609 0.00843935 0.00774281 0.00598609 0.00518943 0.00774281 0.00688903 0.00843935 0.00774281 0.0105333 0.00978633 0.00774281 0.00688903 0.00978633 0.00887302 0.00518943 0.00424634 0.00688903 0.00587825 0.00424634 0.00315774 0.00587825 0.00471006 0.00688903 0.00587825 0.00887302 0.00779281 0.00587825 0.00471006 0.00779281 0.00654381 0.000761118 -0.000297445 0.00185207 0.000709382 -0.000297445 -0.00146816 0.000709382 -0.000559191 0.00185207 0.000709382 0.00315774 0.0019252 0.000709382 -0.000559191 0.0019252 0.000551709 -0.00146816 -0.00274233 -0.000559191 -0.00194634 -0.00274233 -0.00410809 -0.00194634 -0.00344147 -0.000559191 -0.00194634 0.000551709 -0.000957369 -0.00194634 -0.00344147 -0.000957369 -0.00259343 0.00315774 0.0019252 0.00471006 0.0033842 0.0019252 0.000551709 0.0033842 0.00190146 0.00471006 0.0033842 0.00654381 0.00512374 0.0033842 0.00190146 0.00512374 0.00353083 0.000551709 -0.000957369 0.00190146 0.000264613 -0.000957369 -0.00259343 0.000264613 -0.00152059 0.00190146 0.000264613 0.00353083 0.0017646 0.000264613 -0.00152059 0.0017646 -0.000172985 -0.00689834 -0.00801134 -0.00567482 -0.00654178 -0.00801134 -0.00912612 -0.00654178 -0.00740938 -0.00567482 -0.00654178 -0.00624484 -0.00716557 -0.00654178 -0.00740938 -0.00716557 -0.00808694 -0.00912612 -0.010222 -0.00740938 -0.00826136 -0.010222 -0.0112774 -0.00826136 -0.00908071 -0.00740938 -0.00826136 -0.00808694 -0.00899158 -0.00826136 -0.00908071 -0.00899158 -0.00986133 -0.00624484 -0.00716557 -0.00611763 -0.00700226 -0.00716557 -0.00808694 -0.00700226 -0.00788835 -0.00611763 -0.00700226 -0.0060971 -0.00698164 -0.00700226 -0.00788835 -0.00698164 -0.00786919 -0.00808694 -0.00899158 -0.00788835 -0.00875908 -0.00899158 -0.00986133 -0.00875908 -0.00959687 -0.00788835 -0.00875908 -0.00786919 -0.00874282 -0.00875908 -0.00959687 -0.00874282 -0.0095847 -0.0112774 -0.0122695 -0.00908071 -0.00985 -0.0122695 -0.0131758 -0.00985 -0.0105518 -0.00908071 -0.00985 -0.00986133 -0.0106777 -0.00985 -0.0105518 -0.0106777 -0.0114224 -0.0131758 -0.0139733 -0.0105518 -0.0111691 -0.0139733 -0.0146404 -0.0111691 -0.0116865 -0.0105518 -0.0111691 -0.0114224 -0.012078 -0.0111691 -0.0116865 -0.012078 -0.0126287 -0.00986133 -0.0106777 -0.00959687 -0.0103838 -0.0106777 -0.0114224 -0.0103838 -0.0111023 -0.00959687 -0.0103838 -0.0095847 -0.0103767 -0.0103838 -0.0111023 -0.0103767 -0.0111008 -0.0114224 -0.012078 -0.0111023 -0.0117356 -0.012078 -0.0126287 -0.0117356 -0.012269 -0.0111023 -0.0117356 -0.0111008 -0.01174 -0.0117356 -0.012269 -0.01174 -0.0122792 -0.0060971 -0.00698164 -0.00602488 -0.00692125 -0.00698164 -0.00786919 -0.00692125 -0.00782284 -0.00602488 -0.00692125 -0.00592389 -0.00684833 -0.00692125 -0.00782284 -0.00684833 -0.0077809 -0.00786919 -0.00874282 -0.00782284 -0.00871237 -0.00874282 -0.0095847 -0.00871237 -0.0095715 -0.00782284 -0.00871237 -0.0077809 -0.00870366 -0.00871237 -0.0095715 -0.00870366 -0.00959733 -0.00592389 -0.00684833 -0.00578352 -0.0067518 -0.00684833 -0.0077809 -0.0067518 -0.00773194 -0.00578352 -0.0067518 -0.00559677 -0.00662521 -0.0067518 -0.00773194 -0.00662521 -0.0076703 -0.0077809 -0.00870366 -0.00773194 -0.00870507 -0.00870366 -0.00959733 -0.00870507 -0.00965059 -0.00773194 -0.00870507 -0.0076703 -0.00871198 -0.00870507 -0.00965059 -0.00871198 -0.00972797 -0.0095847 -0.0103767 -0.0095715 -0.0103814 -0.0103767 -0.0111008 -0.0103814 -0.0111232 -0.0095715 -0.0103814 -0.00959733 -0.0104419 -0.0103814 -0.0111232 -0.0104419 -0.0112172 -0.0111008 -0.01174 -0.0111232 -0.011779 -0.01174 -0.0122792 -0.011779 -0.0123328 -0.0111232 -0.011779 -0.0112172 -0.0119037 -0.011779 -0.0123328 -0.0119037 -0.0124838 -0.00959733 -0.0104419 -0.00965059 -0.0105468 -0.0104419 -0.0112172 -0.0105468 -0.0113716 -0.00965059 -0.0105468 -0.00972797 -0.0106944 -0.0105468 -0.0113716 -0.0106944 -0.0115866 -0.0112172 -0.0119037 -0.0113716 -0.0121034 -0.0119037 -0.0124838 -0.0121034 -0.0127222 -0.0113716 -0.0121034 -0.0115866 -0.0123799 -0.0121034 -0.0127222 -0.0123799 -0.0130517 -0.0146404 -0.0151573 -0.0116865 -0.0120904 -0.0151573 -0.0155078 -0.0120904 -0.0123718 -0.0116865 -0.0120904 -0.0126287 -0.0130618 -0.0120904 -0.0123718 -0.0130618 -0.0133691 -0.0155078 -0.0156837 -0.0123718 -0.0125247 -0.0156837 -0.0156788 -0.0125247 -0.0125667 -0.0123718 -0.0125247 -0.0133691 -0.0135467 -0.0125247 -0.0125667 -0.0135467 -0.0136104 -0.0126287 -0.0130618 -0.012269 -0.0126905 -0.0130618 -0.0133691 -0.0126905 -0.0129928 -0.012269 -0.0126905 -0.0122792 -0.0127062 -0.0126905 -0.0129928 -0.0127062 -0.0130131 -0.0133691 -0.0135467 -0.0129928 -0.013172 -0.0135467 -0.0136104 -0.013172 -0.013243 -0.0129928 -0.013172 -0.0130131 -0.013195 -0.013172 -0.013243 -0.013195 -0.0132645 -0.0156788 -0.0155472 -0.0125667 -0.0124497 -0.0155472 -0.0152854 -0.0124497 -0.0125569 -0.0125667 -0.0124497 -0.0136104 -0.0135212 -0.0124497 -0.0125569 -0.0135212 -0.0136219 -0.0152854 -0.0143074 -0.0125569 -0.0111992 -0.0143074 -0.0155751 -0.0111992 -0.0141157 -0.0125569 -0.0111992 -0.0136219 -0.0122758 -0.0111992 -0.0141157 -0.0122758 -0.0145685 -0.0136104 -0.0135212 -0.013243 -0.0131594 -0.0135212 -0.0136219 -0.0131594 -0.013264 -0.013243 -0.0131594 -0.0132645 -0.0131727 -0.0131594 -0.013264 -0.0131727 -0.0132488 -0.0136219 -0.0122758 -0.013264 -0.0118818 -0.0122758 -0.0145685 -0.0118818 -0.0142939 -0.013264 -0.0118818 -0.0132488 -0.0118357 -0.0118818 -0.0142939 -0.0118357 -0.0140755 -0.0122792 -0.0127062 -0.0123328 -0.0127714 -0.0127062 -0.0130131 -0.0127714 -0.0130857 -0.0123328 -0.0127714 -0.0124838 -0.0129427 -0.0127714 -0.0130857 -0.0129427 -0.0132698 -0.0130131 -0.013195 -0.0130857 -0.0132694 -0.013195 -0.0132645 -0.0132694 -0.0133333 -0.0130857 -0.0132694 -0.0132698 -0.0134574 -0.0132694 -0.0133333 -0.0134574 -0.0135149 -0.0124838 -0.0129427 -0.0127222 -0.013211 -0.0129427 -0.0132698 -0.013211 -0.0135576 -0.0127222 -0.013211 -0.0130517 -0.013582 -0.013211 -0.0135576 -0.013582 -0.0139563 -0.0132698 -0.0134574 -0.0135576 -0.0137526 -0.0134574 -0.0135149 -0.0137526 -0.0138048 -0.0135576 -0.0137526 -0.0139563 -0.0141637 -0.0137526 -0.0138048 -0.0141637 -0.0142129 -0.0132645 -0.0131727 -0.0133333 -0.0132258 -0.0131727 -0.0132488 -0.0132258 -0.013273 -0.0133333 -0.0132258 -0.0135149 -0.0133892 -0.0132258 -0.013273 -0.0133892 -0.0134077 -0.0132488 -0.0118357 -0.013273 -0.0118163 -0.0118357 -0.0140755 -0.0118163 -0.0140049 -0.013273 -0.0118163 -0.0134077 -0.0119038 -0.0118163 -0.0140049 -0.0119038 -0.0140575 -0.0135149 -0.0133892 -0.0138048 -0.0136603 -0.0133892 -0.0134077 -0.0136603 -0.0136524 -0.0138048 -0.0136603 -0.0142129 -0.0140493 -0.0136603 -0.0136524 -0.0140493 -0.014016 -0.0134077 -0.0119038 -0.0136524 -0.0120923 -0.0119038 -0.0140575 -0.0120923 -0.0142414 -0.0136524 -0.0120923 -0.014016 -0.012388 -0.0120923 -0.0142414 -0.012388 -0.0145541 -0.00559677 -0.00662521 -0.00535265 -0.00645806 -0.00662521 -0.0076703 -0.00645806 -0.00758636 -0.00535265 -0.00645806 -0.00503664 -0.00623639 -0.00645806 -0.00758636 -0.00623639 -0.00746711 -0.0076703 -0.00871198 -0.00758636 -0.008716 -0.00871198 -0.00972797 -0.008716 -0.00982271 -0.00758636 -0.008716 -0.00746711 -0.00870568 -0.008716 -0.00982271 -0.00870568 -0.00992547 -0.00503664 -0.00623639 -0.00462983 -0.00594161 -0.00623639 -0.00746711 -0.00594161 -0.00729487 -0.00462983 -0.00594161 -0.00410809 -0.00554955 -0.00594161 -0.00729487 -0.00554955 -0.00704614 -0.00746711 -0.00870568 -0.00729487 -0.00866493 -0.00870568 -0.00992547 -0.00866493 -0.0100226 -0.00729487 -0.00866493 -0.00704614 -0.00857181 -0.00866493 -0.0100226 -0.00857181 -0.0100947 -0.00972797 -0.0106944 -0.00982271 -0.0108799 -0.0106944 -0.0115866 -0.0108799 -0.0118596 -0.00982271 -0.0108799 -0.00992547 -0.0110966 -0.0108799 -0.0118596 -0.0110966 -0.0121871 -0.0115866 -0.0123799 -0.0118596 -0.0127335 -0.0123799 -0.0130517 -0.0127335 -0.0134749 -0.0118596 -0.0127335 -0.0121871 -0.0131639 -0.0127335 -0.0134749 -0.0131639 -0.0139952 -0.00992547 -0.0110966 -0.0100226 -0.0113342 -0.0110966 -0.0121871 -0.0113342 -0.0125628 -0.0100226 -0.0113342 -0.0100947 -0.0115771 -0.0113342 -0.0125628 -0.0115771 -0.0129759 -0.0121871 -0.0131639 -0.0125628 -0.0136693 -0.0131639 -0.0139952 -0.0136693 -0.0146155 -0.0125628 -0.0136693 -0.0129759 -0.0142448 -0.0136693 -0.0146155 -0.0142448 -0.0153371 -0.00410809 -0.00554955 -0.00344147 -0.00502953 -0.00554955 -0.00704614 -0.00502953 -0.00669023 -0.00344147 -0.00502953 -0.00259343 -0.00434323 -0.00502953 -0.00669023 -0.00434323 -0.00618772 -0.00704614 -0.00857181 -0.00669023 -0.0083967 -0.00857181 -0.0100947 -0.0083967 -0.0101147 -0.00669023 -0.0083967 -0.00618772 -0.00810021 -0.0083967 -0.0101147 -0.00810021 -0.0100449 -0.00259343 -0.00434323 -0.00152059 -0.00344392 -0.00434323 -0.00618772 -0.00344392 -0.00548898 -0.00152059 -0.00344392 -0.000172985 -0.00227614 -0.00344392 -0.00548898 -0.00227614 -0.00453302 -0.00618772 -0.00810021 -0.00548898 -0.00763087 -0.00810021 -0.0100449 -0.00763087 -0.00983378 -0.00548898 -0.00763087 -0.00453302 -0.00692288 -0.00763087 -0.00983378 -0.00692288 -0.00941253 -0.0100947 -0.0