# vtk DataFile Version 3.0
#This file was generated by the deal.II library on 2026/1/5 at 14:42:01
ASCII
DATASET UNSTRUCTURED_GRID

POINTS 1744 double
0 0 0
0.0625 0 0
0 0.0625 0
0.0625 0.0625 0
0.0625 0 0
0.125 0 0
0.0625 0.0625 0
0.125 0.0625 0
0 0.0625 0
0.0625 0.0625 0
0 0.125 0
0.0625 0.125 0
0.0625 0.0625 0
0.125 0.0625 0
0.0625 0.125 0
0.125 0.125 0
0.125 0 0
0.1875 0 0
0.125 0.0625 0
0.1875 0.0625 0
0.1875 0 0
0.25 0 0
0.1875 0.0625 0
0.25 0.0625 0
0.125 0.0625 0
0.1875 0.0625 0
0.125 0.125 0
0.1875 0.125 0
0.1875 0.0625 0
0.25 0.0625 0
0.1875 0.125 0
0.25 0.125 0
0 0.125 0
0.0625 0.125 0
0 0.1875 0
0.0625 0.1875 0
0.0625 0.125 0
0.125 0.125 0
0.0625 0.1875 0
0.125 0.1875 0
0 0.1875 0
0.0625 0.1875 0
0 0.25 0
0.0625 0.25 0
0.0625 0.1875 0
0.125 0.1875 0
0.0625 0.25 0
0.125 0.25 0
0.125 0.125 0
0.1875 0.125 0
0.125 0.1875 0
0.1875 0.1875 0
0.1875 0.125 0
0.25 0.125 0
0.1875 0.1875 0
0.25 0.1875 0
0.125 0.1875 0
0.1875 0.1875 0
0.125 0.25 0
0.1875 0.25 0
0.1875 0.1875 0
0.25 0.1875 0
0.1875 0.25 0
0.25 0.25 0
0.25 0 0
0.3125 0 0
0.25 0.0625 0
0.3125 0.0625 0
0.3125 0 0
0.375 0 0
0.3125 0.0625 0
0.375 0.0625 0
0.25 0.0625 0
0.3125 0.0625 0
0.25 0.125 0
0.3125 0.125 0
0.3125 0.0625 0
0.375 0.0625 0
0.3125 0.125 0
0.375 0.125 0
0.375 0 0
0.4375 0 0
0.375 0.0625 0
0.4375 0.0625 0
0.4375 0 0
0.5 0 0
0.4375 0.0625 0
0.5 0.0625 0
0.375 0.0625 0
0.4375 0.0625 0
0.375 0.125 0
0.4375 0.125 0
0.4375 0.0625 0
0.5 0.0625 0
0.4375 0.125 0
0.5 0.125 0
0.25 0.125 0
0.3125 0.125 0
0.25 0.1875 0
0.3125 0.1875 0
0.3125 0.125 0
0.375 0.125 0
0.3125 0.1875 0
0.375 0.1875 0
0.25 0.1875 0
0.3125 0.1875 0
0.25 0.25 0
0.3125 0.25 0
0.3125 0.1875 0
0.375 0.1875 0
0.3125 0.25 0
0.375 0.25 0
0.375 0.125 0
0.4375 0.125 0
0.375 0.1875 0
0.4375 0.1875 0
0.4375 0.125 0
0.5 0.125 0
0.4375 0.1875 0
0.5 0.1875 0
0.375 0.1875 0
0.4375 0.1875 0
0.375 0.25 0
0.4375 0.25 0
0.4375 0.1875 0
0.5 0.1875 0
0.4375 0.25 0
0.5 0.25 0
0 0.25 0
0.0625 0.25 0
0 0.3125 0
0.0625 0.3125 0
0.0625 0.25 0
0.125 0.25 0
0.0625 0.3125 0
0.125 0.3125 0
0 0.3125 0
0.0625 0.3125 0
0 0.375 0
0.0625 0.375 0
0.0625 0.3125 0
0.125 0.3125 0
0.0625 0.375 0
0.125 0.375 0
0.125 0.25 0
0.1875 0.25 0
0.125 0.3125 0
0.1875 0.3125 0
0.1875 0.25 0
0.25 0.25 0
0.1875 0.3125 0
0.25 0.3125 0
0.125 0.3125 0
0.1875 0.3125 0
0.125 0.375 0
0.1875 0.375 0
0.1875 0.3125 0
0.25 0.3125 0
0.1875 0.375 0
0.25 0.375 0
0 0.375 0
0.0625 0.375 0
0 0.4375 0
0.0625 0.4375 0
0.0625 0.375 0
0.125 0.375 0
0.0625 0.4375 0
0.125 0.4375 0
0 0.4375 0
0.0625 0.4375 0
0 0.5 0
0.0625 0.5 0
0.0625 0.4375 0
0.125 0.4375 0
0.0625 0.5 0
0.125 0.5 0
0.125 0.375 0
0.1875 0.375 0
0.125 0.4375 0
0.1875 0.4375 0
0.1875 0.375 0
0.25 0.375 0
0.1875 0.4375 0
0.25 0.4375 0
0.125 0.4375 0
0.1875 0.4375 0
0.125 0.5 0
0.1875 0.5 0
0.1875 0.4375 0
0.25 0.4375 0
0.1875 0.5 0
0.25 0.5 0
0.25 0.25 0
0.3125 0.25 0
0.25 0.3125 0
0.3125 0.3125 0
0.3125 0.25 0
0.375 0.25 0
0.3125 0.3125 0
0.375 0.3125 0
0.25 0.3125 0
0.3125 0.3125 0
0.25 0.375 0
0.3125 0.375 0
0.3125 0.3125 0
0.375 0.3125 0
0.3125 0.375 0
0.375 0.375 0
0.375 0.25 0
0.4375 0.25 0
0.375 0.3125 0
0.4375 0.3125 0
0.4375 0.25 0
0.5 0.25 0
0.4375 0.3125 0
0.5 0.3125 0
0.375 0.3125 0
0.4375 0.3125 0
0.375 0.375 0
0.4375 0.375 0
0.4375 0.3125 0
0.5 0.3125 0
0.4375 0.375 0
0.5 0.375 0
0.25 0.375 0
0.3125 0.375 0
0.25 0.4375 0
0.3125 0.4375 0
0.3125 0.375 0
0.375 0.375 0
0.3125 0.4375 0
0.375 0.4375 0
0.25 0.4375 0
0.3125 0.4375 0
0.25 0.5 0
0.3125 0.5 0
0.3125 0.4375 0
0.375 0.4375 0
0.3125 0.5 0
0.375 0.5 0
0.375 0.375 0
0.4375 0.375 0
0.375 0.4375 0
0.4375 0.4375 0
0.4375 0.375 0
0.5 0.375 0
0.4375 0.4375 0
0.5 0.4375 0
0.375 0.4375 0
0.4375 0.4375 0
0.375 0.5 0
0.4375 0.5 0
0.4375 0.4375 0
0.5 0.4375 0
0.4375 0.5 0
0.5 0.5 0
0.5 0 0
0.5625 0 0
0.5 0.0625 0
0.5625 0.0625 0
0.5625 0 0
0.625 0 0
0.5625 0.0625 0
0.625 0.0625 0
0.5 0.0625 0
0.5625 0.0625 0
0.5 0.125 0
0.5625 0.125 0
0.5625 0.0625 0
0.625 0.0625 0
0.5625 0.125 0
0.625 0.125 0
0.625 0 0
0.6875 0 0
0.625 0.0625 0
0.6875 0.0625 0
0.6875 0 0
0.75 0 0
0.6875 0.0625 0
0.75 0.0625 0
0.625 0.0625 0
0.6875 0.0625 0
0.625 0.125 0
0.6875 0.125 0
0.6875 0.0625 0
0.75 0.0625 0
0.6875 0.125 0
0.75 0.125 0
0.5 0.125 0
0.5625 0.125 0
0.5 0.1875 0
0.5625 0.1875 0
0.5625 0.125 0
0.625 0.125 0
0.5625 0.1875 0
0.625 0.1875 0
0.5 0.1875 0
0.5625 0.1875 0
0.5 0.25 0
0.5625 0.25 0
0.5625 0.1875 0
0.625 0.1875 0
0.5625 0.25 0
0.625 0.25 0
0.625 0.125 0
0.6875 0.125 0
0.625 0.1875 0
0.6875 0.1875 0
0.6875 0.125 0
0.75 0.125 0
0.6875 0.1875 0
0.75 0.1875 0
0.625 0.1875 0
0.6875 0.1875 0
0.625 0.25 0
0.6875 0.25 0
0.6875 0.1875 0
0.75 0.1875 0
0.6875 0.25 0
0.75 0.25 0
0.75 0 0
0.8125 0 0
0.75 0.0625 0
0.8125 0.0625 0
0.8125 0 0
0.875 0 0
0.8125 0.0625 0
0.875 0.0625 0
0.75 0.0625 0
0.8125 0.0625 0
0.75 0.125 0
0.8125 0.125 0
0.8125 0.0625 0
0.875 0.0625 0
0.8125 0.125 0
0.875 0.125 0
0.75 0.125 0
0.8125 0.125 0
0.75 0.1875 0
0.8125 0.1875 0
0.8125 0.125 0
0.875 0.125 0
0.8125 0.1875 0
0.875 0.1875 0
0.75 0.1875 0
0.8125 0.1875 0
0.75 0.25 0
0.8125 0.25 0
0.8125 0.1875 0
0.875 0.1875 0
0.8125 0.25 0
0.875 0.25 0
0.5 0.25 0
0.5625 0.25 0
0.5 0.3125 0
0.5625 0.3125 0
0.5625 0.25 0
0.625 0.25 0
0.5625 0.3125 0
0.625 0.3125 0
0.5 0.3125 0
0.5625 0.3125 0
0.5 0.375 0
0.5625 0.375 0
0.5625 0.3125 0
0.625 0.3125 0
0.5625 0.375 0
0.625 0.375 0
0.625 0.25 0
0.6875 0.25 0
0.625 0.3125 0
0.6875 0.3125 0
0.6875 0.25 0
0.75 0.25 0
0.6875 0.3125 0
0.75 0.3125 0
0.625 0.3125 0
0.6875 0.3125 0
0.625 0.375 0
0.6875 0.375 0
0.6875 0.3125 0
0.75 0.3125 0
0.6875 0.375 0
0.75 0.375 0
0.5 0.375 0
0.5625 0.375 0
0.5 0.4375 0
0.5625 0.4375 0
0.5625 0.375 0
0.625 0.375 0
0.5625 0.4375 0
0.625 0.4375 0
0.5 0.4375 0
0.5625 0.4375 0
0.5 0.5 0
0.5625 0.5 0
0.5625 0.4375 0
0.625 0.4375 0
0.5625 0.5 0
0.625 0.5 0
0.625 0.375 0
0.6875 0.375 0
0.625 0.4375 0
0.6875 0.4375 0
0.6875 0.375 0
0.75 0.375 0
0.6875 0.4375 0
0.75 0.4375 0
0.625 0.4375 0
0.6875 0.4375 0
0.625 0.5 0
0.6875 0.5 0
0.6875 0.4375 0
0.75 0.4375 0
0.6875 0.5 0
0.75 0.5 0
0.75 0.25 0
0.8125 0.25 0
0.75 0.3125 0
0.8125 0.3125 0
0.8125 0.25 0
0.875 0.25 0
0.8125 0.3125 0
0.875 0.3125 0
0.75 0.3125 0
0.8125 0.3125 0
0.75 0.375 0
0.8125 0.375 0
0.8125 0.3125 0
0.875 0.3125 0
0.8125 0.375 0
0.875 0.375 0
0.75 0.375 0
0.8125 0.375 0
0.75 0.4375 0
0.8125 0.4375 0
0.8125 0.375 0
0.875 0.375 0
0.8125 0.4375 0
0.875 0.4375 0
0.75 0.4375 0
0.8125 0.4375 0
0.75 0.5 0
0.8125 0.5 0
0.8125 0.4375 0
0.875 0.4375 0
0.8125 0.5 0
0.875 0.5 0
0 0.5 0
0.0625 0.5 0
0 0.5625 0
0.0625 0.5625 0
0.0625 0.5 0
0.125 0.5 0
0.0625 0.5625 0
0.125 0.5625 0
0 0.5625 0
0.0625 0.5625 0
0 0.625 0
0.0625 0.625 0
0.0625 0.5625 0
0.125 0.5625 0
0.0625 0.625 0
0.125 0.625 0
0.125 0.5 0
0.1875 0.5 0
0.125 0.5625 0
0.1875 0.5625 0
0.1875 0.5 0
0.25 0.5 0
0.1875 0.5625 0
0.25 0.5625 0
0.125 0.5625 0
0.1875 0.5625 0
0.125 0.625 0
0.1875 0.625 0
0.1875 0.5625 0
0.25 0.5625 0
0.1875 0.625 0
0.25 0.625 0
0 0.625 0
0.0625 0.625 0
0 0.6875 0
0.0625 0.6875 0
0.0625 0.625 0
0.125 0.625 0
0.0625 0.6875 0
0.125 0.6875 0
0 0.6875 0
0.0625 0.6875 0
0 0.75 0
0.0625 0.75 0
0.0625 0.6875 0
0.125 0.6875 0
0.0625 0.75 0
0.125 0.75 0
0.125 0.625 0
0.1875 0.625 0
0.125 0.6875 0
0.1875 0.6875 0
0.1875 0.625 0
0.25 0.625 0
0.1875 0.6875 0
0.25 0.6875 0
0.125 0.6875 0
0.1875 0.6875 0
0.125 0.75 0
0.1875 0.75 0
0.1875 0.6875 0
0.25 0.6875 0
0.1875 0.75 0
0.25 0.75 0
0.25 0.5 0
0.3125 0.5 0
0.25 0.5625 0
0.3125 0.5625 0
0.3125 0.5 0
0.375 0.5 0
0.3125 0.5625 0
0.375 0.5625 0
0.25 0.5625 0
0.3125 0.5625 0
0.25 0.625 0
0.3125 0.625 0
0.3125 0.5625 0
0.375 0.5625 0
0.3125 0.625 0
0.375 0.625 0
0.375 0.5 0
0.4375 0.5 0
0.375 0.5625 0
0.4375 0.5625 0
0.4375 0.5 0
0.5 0.5 0
0.4375 0.5625 0
0.5 0.5625 0
0.375 0.5625 0
0.4375 0.5625 0
0.375 0.625 0
0.4375 0.625 0
0.4375 0.5625 0
0.5 0.5625 0
0.4375 0.625 0
0.5 0.625 0
0.25 0.625 0
0.3125 0.625 0
0.25 0.6875 0
0.3125 0.6875 0
0.3125 0.625 0
0.375 0.625 0
0.3125 0.6875 0
0.375 0.6875 0
0.25 0.6875 0
0.3125 0.6875 0
0.25 0.75 0
0.3125 0.75 0
0.3125 0.6875 0
0.375 0.6875 0
0.3125 0.75 0
0.375 0.75 0
0.375 0.625 0
0.4375 0.625 0
0.375 0.6875 0
0.4375 0.6875 0
0.4375 0.625 0
0.5 0.625 0
0.4375 0.6875 0
0.5 0.6875 0
0.375 0.6875 0
0.4375 0.6875 0
0.375 0.75 0
0.4375 0.75 0
0.4375 0.6875 0
0.5 0.6875 0
0.4375 0.75 0
0.5 0.75 0
0 0.75 0
0.0625 0.75 0
0 0.8125 0
0.0625 0.8125 0
0.0625 0.75 0
0.125 0.75 0
0.0625 0.8125 0
0.125 0.8125 0
0 0.8125 0
0.0625 0.8125 0
0 0.875 0
0.0625 0.875 0
0.0625 0.8125 0
0.125 0.8125 0
0.0625 0.875 0
0.125 0.875 0
0.125 0.75 0
0.1875 0.75 0
0.125 0.8125 0
0.1875 0.8125 0
0.1875 0.75 0
0.25 0.75 0
0.1875 0.8125 0
0.25 0.8125 0
0.125 0.8125 0
0.1875 0.8125 0
0.125 0.875 0
0.1875 0.875 0
0.1875 0.8125 0
0.25 0.8125 0
0.1875 0.875 0
0.25 0.875 0
0.25 0.75 0
0.3125 0.75 0
0.25 0.8125 0
0.3125 0.8125 0
0.3125 0.75 0
0.375 0.75 0
0.3125 0.8125 0
0.375 0.8125 0
0.25 0.8125 0
0.3125 0.8125 0
0.25 0.875 0
0.3125 0.875 0
0.3125 0.8125 0
0.375 0.8125 0
0.3125 0.875 0
0.375 0.875 0
0.375 0.75 0
0.4375 0.75 0
0.375 0.8125 0
0.4375 0.8125 0
0.4375 0.75 0
0.5 0.75 0
0.4375 0.8125 0
0.5 0.8125 0
0.375 0.8125 0
0.4375 0.8125 0
0.375 0.875 0
0.4375 0.875 0
0.4375 0.8125 0
0.5 0.8125 0
0.4375 0.875 0
0.5 0.875 0
0.5 0.5 0
0.5625 0.5 0
0.5 0.5625 0
0.5625 0.5625 0
0.5625 0.5 0
0.625 0.5 0
0.5625 0.5625 0
0.625 0.5625 0
0.5 0.5625 0
0.5625 0.5625 0
0.5 0.625 0
0.5625 0.625 0
0.5625 0.5625 0
0.625 0.5625 0
0.5625 0.625 0
0.625 0.625 0
0.625 0.5 0
0.6875 0.5 0
0.625 0.5625 0
0.6875 0.5625 0
0.6875 0.5 0
0.75 0.5 0
0.6875 0.5625 0
0.75 0.5625 0
0.625 0.5625 0
0.6875 0.5625 0
0.625 0.625 0
0.6875 0.625 0
0.6875 0.5625 0
0.75 0.5625 0
0.6875 0.625 0
0.75 0.625 0
0.5 0.625 0
0.5625 0.625 0
0.5 0.6875 0
0.5625 0.6875 0
0.5625 0.625 0
0.625 0.625 0
0.5625 0.6875 0
0.625 0.6875 0
0.5 0.6875 0
0.5625 0.6875 0
0.5 0.75 0
0.5625 0.75 0
0.5625 0.6875 0
0.625 0.6875 0
0.5625 0.75 0
0.625 0.75 0
0.625 0.625 0
0.6875 0.625 0
0.625 0.6875 0
0.6875 0.6875 0
0.6875 0.625 0
0.75 0.625 0
0.6875 0.6875 0
0.75 0.6875 0
0.625 0.6875 0
[...]
POINT_DATA 1744
SCALARS p double 1
LOOKUP_TABLE default
2.12563e-07 -0.00103618 0.00105064 -6.57326e-06 -0.00103618 -0.0041049 -6.57326e-06 -0.00313643 0.00105064 -6.57326e-06 0.00424379 0.00312332 -6.57326e-06 -0.00313643 0.00312332 -0.000193057 -0.0041049 -0.00908557 -0.00313643 -0.00821569 -0.00908557 -0.0157841 -0.00821569 -0.0150457 -0.00313643 -0.00821569 -0.000193057 -0.00557278 -0.00821569 -0.0150457 -0.00557278 -0.0128029 0.00424379 0.00312332 0.00970847 0.00847883 0.00312332 -0.000193057 0.00847883 0.00484085 0.00970847 0.00847883 0.0176671 0.0162762 0.00847883 0.00484085 0.0162762 0.0121639 -0.000193057 -0.00557278 0.00484085 -0.00105604 -0.00557278 -0.0128029 -0.00105604 -0.00897334 0.00484085 -0.00105604 0.0121639 0.00550645 -0.00105604 -0.00897334 0.00550645 -0.00341736 -0.0157841 -0.0239415 -0.0150457 -0.0233616 -0.0239415 -0.033245 -0.0233616 -0.0328443 -0.0150457 -0.0233616 -0.0128029 -0.0216011 -0.0233616 -0.0328443 -0.0216011 -0.0316283 -0.033245 -0.0433403 -0.0328443 -0.0431329 -0.0433403 -0.0538457 -0.0431329 -0.0538388 -0.0328443 -0.0431329 -0.0316283 -0.0425035 -0.0431329 -0.0538388 -0.0425035 -0.0538175 -0.0128029 -0.0216011 -0.00897334 -0.0185973 -0.0216011 -0.0316283 -0.0185973 -0.029555 -0.00897334 -0.0185973 -0.00341736 -0.0142457 -0.0185973 -0.029555 -0.0142457 -0.0265547 -0.0316283 -0.0425035 -0.029555 -0.0414306 -0.0425035 -0.0538175 -0.0414306 -0.0537807 -0.029555 -0.0414306 -0.0265547 -0.0398786 -0.0414306 -0.0537807 -0.0398786 -0.0537262 0.0176671 0.0162762 0.028449 0.0268347 0.0162762 0.0121639 0.0268347 0.0220668 0.028449 0.0268347 0.0425117 0.0405958 0.0268347 0.0220668 0.0405958 0.0349468 0.0121639 0.00550645 0.0220668 0.0143633 0.00550645 -0.00341736 0.0143633 0.0040636 0.0220668 0.0143633 0.0349468 0.0258472 0.0143633 0.0040636 0.0258472 0.0137286 0.0425117 0.0405958 0.060475 0.0581542 0.0405958 0.0349468 0.0581542 0.0513285 0.060475 0.0581542 0.0831768 0.0803055 0.0581542 0.0513285 0.0803055 0.0718935 0.0349468 0.0258472 0.0513285 0.0403841 0.0258472 0.0137286 0.0403841 0.0258958 0.0513285 0.0403841 0.0718935 0.0585007 0.0403841 0.0258958 0.0585007 0.0409317 -0.00341736 -0.0142457 0.0040636 -0.00839979 -0.0142457 -0.0265547 -0.00839979 -0.0225316 0.0040636 -0.00839979 0.0137286 -0.000873922 -0.00839979 -0.0225316 -0.000873922 -0.0173673 -0.0265547 -0.0398786 -0.0225316 -0.0377992 -0.0398786 -0.0537262 -0.0377992 -0.0536508 -0.0225316 -0.0377992 -0.0173673 -0.0351338 -0.0377992 -0.0536508 -0.0351338 -0.0535508 0.0137286 -0.000873922 0.0258958 0.00854901 -0.000873922 -0.0173673 0.00854901 -0.0109297 0.0258958 0.00854901 0.0409317 0.0200986 0.00854901 -0.0109297 0.0200986 -0.00309179 -0.0173673 -0.0351338 -0.0109297 -0.0318191 -0.0351338 -0.0535508 -0.0318191 -0.0534217 -0.0109297 -0.0318191 -0.00309179 -0.027799 -0.0318191 -0.0534217 -0.027799 -0.0532591 -0.0538457 -0.0643647 -0.0538388 -0.0645586 -0.0643647 -0.0745 -0.0645586 -0.0748884 -0.0538388 -0.0645586 -0.0538175 -0.0651468 -0.0645586 -0.0748884 -0.0651468 -0.076067 -0.0745 -0.0838671 -0.0748884 -0.0844369 -0.0838671 -0.0921082 -0.0844369 -0.0928392 -0.0748884 -0.0844369 -0.076067 -0.0861662 -0.0844369 -0.0928392 -0.0861662 -0.0950589 -0.0538175 -0.0651468 -0.0537807 -0.0661483 -0.0651468 -0.076067 -0.0661483 -0.0780753 -0.0537807 -0.0661483 -0.0537262 -0.0675942 -0.0661483 -0.0780753 -0.0675942 -0.0809788 -0.076067 -0.0861662 -0.0780753 -0.0891155 -0.0861662 -0.0950589 -0.0891155 -0.0988484 -0.0780753 -0.0891155 -0.0809788 -0.0933857 -0.0891155 -0.0988484 -0.0933857 -0.104344 -0.0921082 -0.0989052 -0.0928392 -0.0997708 -0.0989052 -0.103993 -0.0997708 -0.10496 -0.0928392 -0.0997708 -0.0950589 -0.1024 -0.0997708 -0.10496 -0.1024 -0.107901 -0.0950589 -0.1024 -0.0988484 -0.106894 -0.1024 -0.107901 -0.106894 -0.112931 -0.0988484 -0.106894 -0.104344 -0.113422 -0.106894 -0.112931 -0.113422 -0.120248 -0.0537262 -0.0675942 -0.0536508 -0.0695269 -0.0675942 -0.0809788 -0.0695269 -0.0848671 -0.0536508 -0.0695269 -0.0535508 -0.0719968 -0.0695269 -0.0848671 -0.0719968 -0.0898502 -0.0809788 -0.0933857 -0.0848671 -0.0991171 -0.0933857 -0.104344 -0.0991171 -0.111739 -0.0848671 -0.0991171 -0.0898502 -0.106487 -0.0991171 -0.111739 -0.106487 -0.121285 -0.0535508 -0.0719968 -0.0534217 -0.075058 -0.0719968 -0.0898502 -0.075058 -0.0960494 -0.0534217 -0.075058 -0.0532591 -0.0787567 -0.075058 -0.0960494 -0.0787567 -0.103579 -0.0898502 -0.106487 -0.0960494 -0.1157 -0.106487 -0.121285 -0.1157 -0.133287 -0.0960494 -0.1157 -0.103579 -0.126968 -0.1157 -0.133287 -0.126968 -0.148091 -0.104344 -0.113422 -0.111739 -0.12223 -0.113422 -0.120248 -0.12223 -0.130143 -0.111739 -0.12223 -0.121285 -0.133643 -0.12223 -0.130143 -0.133643 -0.143012 -0.121285 -0.133643 -0.133287 -0.148079 -0.133643 -0.143012 -0.148079 -0.159373 -0.133287 -0.148079 -0.148091 -0.166041 -0.148079 -0.159373 -0.166041 -0.179895 0.0831768 0.0803055 0.111767 0.108126 0.0803055 0.0718935 0.108126 0.097523 0.111767 0.108126 0.147878 0.14311 0.108126 0.097523 0.14311 0.129356 0.0718935 0.0585007 0.097523 0.0808255 0.0585007 0.0409317 0.0808255 0.0592236 0.097523 0.0808255 0.129356 0.108067 0.0808255 0.0592236 0.108067 0.0811085 0.147878 0.14311 0.193952 0.187416 0.14311 0.129356 0.187416 0.168858 0.193952 0.187416 0.253966 0.244361 0.187416 0.168858 0.244361 0.217849 0.129356 0.108067 0.168858 0.140923 0.108067 0.0811085 0.140923 0.106717 0.168858 0.140923 0.217849 0.179786 0.140923 0.106717 0.179786 0.135641 0.0409317 0.0200986 0.0592236 0.0339768 0.0200986 -0.00309179 0.0339768 0.00623326 0.0592236 0.0339768 0.0811085 0.0502798 0.0339768 0.00623326 0.0502798 0.0170312 -0.00309179 -0.027799 0.00623326 -0.0230442 -0.027799 -0.0532591 -0.0230442 -0.0530597 0.00623326 -0.0230442 0.0170312 -0.0175853 -0.0230442 -0.0530597 -0.0175853 -0.0528232 0.0811085 0.0502798 0.106717 0.0688551 0.0502798 0.0170312 0.0688551 0.0290925 0.106717 0.0688551 0.135641 0.0890776 0.0688551 0.0290925 0.0890776 0.0418929 0.0170312 -0.0175853 0.0290925 -0.0115581 -0.0175853 -0.0528232 -0.0115581 -0.0525542 0.0290925 -0.0115581 0.0418929 -0.00525331 -0.0115581 -0.0525542 -0.00525331 -0.0522657 0.253966 0.244361 0.335241 0.319489 0.244361 0.217849 0.319489 0.278116 0.335241 0.319489 0.455948 0.422156 0.319489 0.278116 0.422156 0.348276 0.217849 0.179786 0.278116 0.22384 0.179786 0.135641 0.22384 0.166346 0.278116 0.22384 0.348276 0.269169 0.22384 0.166346 0.269169 0.19554 0.135641 0.0890776 0.166346 0.109583 0.0890776 0.0418929 0.109583 0.0544935 0.166346 0.109583 0.19554 0.128128 0.109583 0.0544935 0.128128 0.0655455 0.0418929 -0.00525331 0.0544935 0.000852999 -0.00525331 -0.0522657 0.000852999 -0.0519803 0.0544935 0.000852999 0.0655455 0.00612142 0.000852999 -0.0519803 0.00612142 -0.0517299 -0.0532591 -0.0787567 -0.0530597 -0.0831141 -0.0787567 -0.103579 -0.0831141 -0.112513 -0.0530597 -0.0831141 -0.0528232 -0.0880961 -0.0831141 -0.112513 -0.0880961 -0.122826 -0.103579 -0.126968 -0.112513 -0.140474 -0.126968 -0.148091 -0.140474 -0.166054 -0.112513 -0.140474 -0.122826 -0.156289 -0.140474 -0.166054 -0.156289 -0.187471 -0.0528232 -0.0880961 -0.0525542 -0.0935735 -0.0880961 -0.122826 -0.0935735 -0.134305 -0.0525542 -0.0935735 -0.0522657 -0.0992786 -0.0935735 -0.134305 -0.0992786 -0.146439 -0.122826 -0.156289 -0.134305 -0.174243 -0.156289 -0.187471 -0.174243 -0.212425 -0.134305 -0.174243 -0.146439 -0.193696 -0.174243 -0.212425 -0.193696 -0.240496 -0.148091 -0.166041 -0.166054 -0.188124 -0.166041 -0.179895 -0.188124 -0.205428 -0.166054 -0.188124 -0.187471 -0.214973 -0.188124 -0.205428 -0.214973 -0.237041 -0.187471 -0.214973 -0.212425 -0.247187 -0.214973 -0.237041 -0.247187 -0.276053 -0.212425 -0.247187 -0.240496 -0.285042 -0.247187 -0.276053 -0.285042 -0.323993 -0.0522657 -0.0992786 -0.0519803 -0.104781 -0.0992786 -0.146439 -0.104781 -0.15833 -0.0519803 -0.104781 -0.0517299 -0.109509 -0.104781 -0.15833 -0.109509 -0.168712 -0.146439 -0.193696 -0.15833 -0.213305 -0.193696 -0.240496 -0.213305 -0.270025 -0.15833 -0.213305 -0.168712 -0.230919 -0.213305 -0.270025 -0.230919 -0.297823 -0.240496 -0.285042 -0.270025 -0.328049 -0.285042 -0.323993 -0.328049 -0.382104 -0.270025 -0.328049 -0.297823 -0.370871 -0.328049 -0.382104 -0.370871 -0.45404 -0.103993 -0.107245 -0.10681 -0.10724 -0.107245 -0.108429 -0.10724 -0.108719 -0.10681 -0.10724 -0.10496 -0.108278 -0.10724 -0.108719 -0.108278 -0.109486 -0.108429 -0.109246 -0.108719 -0.109511 -0.109246 -0.109512 -0.109511 -0.109782 -0.108719 -0.109511 -0.109486 -0.11032 -0.109511 -0.109782 -0.11032 -0.110592 -0.10496 -0.108278 -0.108859 -0.109306 -0.108278 -0.109486 -0.109306 -0.110846 -0.108859 -0.109306 -0.107901 -0.11142 -0.109306 -0.110846 -0.11142 -0.112701 -0.109486 -0.11032 -0.110846 -0.111669 -0.11032 -0.110592 -0.111669 -0.111952 -0.110846 -0.111669 -0.112701 -0.113585 -0.111669 -0.111952 -0.113585 -0.113874 -0.107901 -0.11142 -0.113038 -0.113522 -0.11142 -0.112701 -0.113522 -0.115185 -0.113038 -0.113522 -0.112931 -0.116796 -0.113522 -0.115185 -0.116796 -0.118204 -0.112701 -0.113585 -0.115185 -0.116075 -0.113585 -0.113874 -0.116075 -0.11638 -0.115185 -0.116075 -0.118204 -0.119176 -0.116075 -0.11638 -0.119176 -0.119494 -0.112931 -0.116796 -0.119517 -0.120057 -0.116796 -0.118204 -0.120057 -0.121914 -0.119517 -0.120057 -0.120248 -0.124626 -0.120057 -0.121914 -0.124626 -0.126222 -0.118204 -0.119176 -0.121914 -0.122909 -0.119176 -0.119494 -0.122909 -0.12325 -0.121914 -0.122909 -0.126222 -0.127324 -0.122909 -0.12325 -0.127324 -0.127684 -0.120248 -0.124626 -0.128558 -0.129179 -0.124626 -0.126222 -0.129179 -0.131313 -0.128558 -0.129179 -0.130143 -0.135232 -0.129179 -0.131313 -0.135232 -0.137089 -0.126222 -0.127324 -0.131313 -0.132455 -0.127324 -0.127684 -0.132455 -0.132847 -0.131313 -0.132455 -0.137089 -0.138372 -0.132455 -0.132847 -0.138372 -0.138791 -0.130143 -0.135232 -0.140533 -0.141264 -0.135232 -0.137089 -0.141264 -0.143776 -0.140533 -0.141264 -0.143012 -0.149059 -0.141264 -0.143776 -0.149059 -0.151269 -0.137089 -0.138372 -0.143776 -0.145122 -0.138372 -0.138791 -0.145122 -0.145584 -0.143776 -0.145122 -0.151269 -0.152798 -0.145122 -0.145584 -0.152798 -0.153298 -0.143012 -0.149059 -0.155945 -0.156825 -0.149059 -0.151269 -0.156825 -0.159845 -0.155945 -0.156825 -0.159373 -0.166703 -0.156825 -0.159845 -0.166703 -0.16939 -0.151269 -0.152798 -0.159845 -0.161467 -0.152798 -0.153298 -0.161467 -0.162023 -0.159845 -0.161467 -0.16939 -0.17125 -0.161467 -0.162023 -0.17125 -0.171859 -0.159373 -0.166703 -0.175459 -0.17654 -0.166703 -0.16939 -0.17654 -0.180248 -0.175459 -0.17654 -0.179895 -0.188959 -0.17654 -0.180248 -0.188959 -0.192294 -0.16939 -0.17125 -0.180248 -0.182243 -0.17125 -0.171859 -0.182243 -0.182928 -0.180248 -0.182243 -0.192294 -0.194607 -0.182243 -0.182928 -0.194607 -0.195365 0.455948 0.530414 0.590964 0.564857 0.530414 0.422156 0.564857 0.526766 0.590964 0.564857 0.716151 0.681288 0.564857 0.526766 0.681288 0.594642 0.422156 0.446103 0.526766 0.46241 0.446103 0.348276 0.46241 0.41002 0.526766 0.46241 0.594642 0.512229 0.46241 0.41002 0.512229 0.439087 0.716151 0.681288 0.981814 0.80582 0.681288 0.594642 0.80582 0.656377 0.981814 0.80582 1.08752 0.860012 0.80582 0.656377 0.860012 0.681239 0.594642 0.512229 0.656377 0.546917 0.512229 0.439087 0.546917 0.461593 0.656377 0.546917 0.681239 0.560154 0.546917 0.461593 0.560154 0.469614 0.348276 0.343967 0.41002 0.351636 0.343967 0.269169 0.351636 0.305488 0.41002 0.351636 0.439087 0.376454 0.351636 0.305488 0.376454 0.320626 0.269169 0.253218 0.305488 0.257426 0.253218 0.19554 0.257426 0.217602 0.305488 0.257426 0.320626 0.271412 0.257426 0.217602 0.271412 0.226356 0.439087 0.376454 0.461593 0.391436 0.376454 0.320626 0.391436 0.331743 0.461593 0.391436 0.469614 0.396836 0.391436 0.331743 0.396836 0.335532 0.320626 0.271412 0.331743 0.279412 0.271412 0.226356 0.279412 0.232644 0.331743 0.279412 0.335532 0.282235 0.279412 0.232644 0.282235 0.23475 0.19554 0.17452 0.217602 0.177002 0.17452 0.128128 0.177002 0.141644 0.217602 0.177002 0.226356 0.185342 0.177002 0.141644 0.185342 0.146882 0.128128 0.104458 0.141644 0.105927 0.104458 0.0655455 0.105927 0.0734244 0.141644 0.105927 0.146882 0.110891 0.105927 0.0734244 0.110891 0.07644 0.226356 0.185342 0.232644 0.190007 0.185342 0.146882 0.190007 0.150604 0.232644 0.190007 0.23475 0.191638 0.190007 0.150604 0.191638 0.151841 0.146882 0.110891 0.150604 0.113637 0.110891 0.07644 0.113637 0.0785706 0.150604 0.113637 0.151841 0.114592 0.113637 0.0785706 0.114592 0.079276 0.0655455 0.0399601 0.0734244 0.0407494 0.0399601 0.00612142 0.0407494 0.00983331 0.0734244 0.0407494 0.07644 0.0434249 0.0407494 0.00983331 0.0434249 0.0112451 0.00612142 -0.0214195 0.00983331 -0.0211555 -0.0214195 -0.0517299 -0.0211555 -0.0515516 0.00983331 -0.0211555 0.0112451 -0.0202594 -0.0211555 -0.0515516 -0.0202594 -0.0514835 0.07644 0.0434249 0.0785706 0.0448965 0.0434249 0.0112451 0.0448965 0.0122397 0.0785706 0.0448965 0.079276 0.0454073 0.0448965 0.0122397 0.0454073 0.0125684 0.0112451 -0.0202594 0.0122397 -0.0197677 -0.0202594 -0.0514835 -0.0197677 -0.0514354 0.0122397 -0.0197677 0.0125684 -0.0195972 -0.0197677 -0.0514354 -0.0195972 -0.0514195 -0.179895 -0.188959 -0.199954 -0.201313 -0.188959 -0.192294 -0.201313 -0.205966 -0.199954 -0.201313 -0.205428 -0.216883 -0.201313 -0.205966 -0.216883 -0.221123 -0.192294 -0.194607 -0.205966 -0.208476 -0.194607 -0.195365 -0.208476 -0.209339 -0.205966 -0.208476 -0.221123 -0.224072 -0.208476 -0.209339 -0.224072 -0.225039 -0.205428 -0.216883 -0.230593 -0.232347 -0.216883 -0.221123 -0.232347 -0.23834 -0.230593 -0.232347 -0.237041 -0.251908 -0.232347 -0.23834 -0.251908 -0.25746 -0.221123 -0.224072 -0.23834 -0.241587 -0.224072 -0.225039 -0.241587 -0.242706 -0.23834 -0.241587 -0.25746 -0.261339 -0.241587 -0.242706 -0.261339 -0.262615 -0.237041 -0.251908 -0.268938 -0.271282 -0.251908 -0.25746 -0.271282 -0.279263 -0.268938 -0.271282 -0.276053 -0.296014 -0.271282 -0.279263 -0.296014 -0.30358 -0.25746 -0.261339 -0.279263 -0.283618 -0.261339 -0.262615 -0.283618 -0.285124 -0.279263 -0.283618 -0.30358 -0.308902 -0.283618 -0.285124 -0.308902 -0.31066 -0.276053 -0.296014 -0.3171 -0.320389 -0.296014 -0.30358 -0.320389 -0.33151 -0.3171 -0.320389 -0.323993 -0.351974 -0.320389 -0.33151 -0.351974 -0.362888 -0.30358 -0.308902 -0.33151 -0.33766 -0.308902 -0.31066 -0.33766 -0.3398 -0.33151 -0.33766 -0.362888 -0.370671 -0.33766 -0.3398 -0.370671 -0.37327 -0.0517299 -0.0817385 -0.0515516 -0.0819515 -0.0817385 -0.109509 -0.0819515 -0.112831 -0.0515516 -0.0819515 -0.0514835 -0.082675 -0.0819515 -0.112831 -0.082675 -0.114093 -0.109509 -0.14292 -0.112831 -0.143648 -0.14292 -0.168712 -0.143648 -0.17609 -0.112831 -0.143648 -0.114093 -0.146116 -0.143648 -0.17609 -0.146116 -0.178909 -0.0514835 -0.082675 -0.0514354 -0.0830716 -0.082675 -0.114093 -0.0830716 -0.114982 -0.0514354 -0.0830716 -0.0514195 -0.0832091 -0.0830716 -0.114982 -0.0832091 -0.115275 -0.114093 -0.146116 -0.114982 -0.147472 -0.146116 -0.178909 -0.147472 -0.1809 -0.114982 -0.147472 -0.115275 -0.147943 -0.147472 -0.1809 -0.147943 -0.181558 -0.168712 -0.206994 -0.17609 -0.208375 -0.206994 -0.230919 -0.208375 -0.243694 -0.17609 -0.208375 -0.178909 -0.213047 -0.208375 -0.243694 -0.213047 -0.248635 -0.230919 -0.276346 -0.243694 -0.278686 -0.276346 -0.297823 -0.278686 -0.318633 -0.243694 -0.278686 -0.248635 -0.286554 -0.278686 -0.318633 -0.286554 -0.326883 -0.178909 -0.213047 -0.1809 -0.215628 -0.213047 -0.248635 -0.215628 -0.252142 -0.1809 -0.215628 -0.181558 -0.216526 -0.215628 -0.252142 -0.216526 -0.253307 -0.248635 -0.286554 -0.252142 -0.290951 -0.286554 -0.326883 -0.290951 -0.332808 -0.252142 -0.290951 -0.253307 -0.292488 -0.290951 -0.332808 -0.292488 -0.334794 -0.323993 -0.351974 -0.377801 -0.382777 -0.351974 -0.362888 -0.382777 -0.399334 -0.377801 -0.382777 -0.382104 -0.423405 -0.382777 -0.399334 -0.423405 -0.440713 -0.362888 -0.370671 -0.399334 -0.408789 -0.370671 -0.37327 -0.408789 -0.41212 -0.399334 -0.408789 -0.440713 -0.453452 -0.408789 -0.41212 -0.453452 -0.457867 -0.382104 -0.423405 -0.453231 -0.462154 -0.423405 -0.440713 -0.462154 -0.48913 -0.453231 -0.462154 -0.45404 -0.509292 -0.462154 -0.48913 -0.509292 -0.545314 -0.440713 -0.453452 -0.48913 -0.506665 -0.453452 -0.457867 -0.506665 -0.512999 -0.48913 -0.506665 -0.545314 -0.572043 -0.506665 -0.512999 -0.572043 -0.5818 -0.297823 -0.353901 -0.318633 -0.357864 -0.353901 -0.370871 -0.357864 -0.40476 -0.318633 -0.357864 -0.326883 -0.37101 -0.357864 -0.40476 -0.37101 -0.419029 -0.370871 -0.442496 -0.40476 -0.450037 -0.442496 -0.45404 -0.450037 -0.50273 -0.40476 -0.450037 -0.419029 -0.472875 -0.450037 -0.50273 -0.472875 -0.533494 -0.326883 -0.37101 -0.332808 -0.378559 -0.37101 -0.419029 -0.378559 -0.429542 -0.332808 -0.378559 -0.334794 -0.381224 -0.378559 -0.429542 -0.381224 -0.433183 -0.419029 -0.472875 -0.429542 -0.487586 -0.472875 -0.533494 -0.487586 -0.555821 -0.429542 -0.487586 -0.433183 -0.492869 -0.487586 -0.555821 -0.492869 -0.563872 -0.45404 -0.509292 -0.50273 -0.555711 -0.509292 -0.545314 -0.555711 -0.612032 -0.50273 -0.555711 -0.533494 -0.603891 -0.555711 -0.612032 -0.603891 -0.684897 -0.545314 -0.572043 -0.612032 -0.65548 -0.572043 -0.5818 -0.65548 -0.672907 -0.612032 -0.65548 -0.684897 -0.769597 -0.65548 -0.672907 -0.769597 -0.804728 -0.533494 -0.603891 -0.555821 -0.639304 -0.603891 -0.684897 -0.639304 -0.74712 -0.555821 -0.639304 -0.563872 -0.652655 -0.639304 -0.74712 -0.652655 -0.772277 -0.684897 -0.769597 -0.74712 -0.895569 -0.769597 -0.804728 -0.895569 -1.07113 -0.74712 -0.895569 -0.772277 -0.950057 -0.895569 -1.07113 -0.950057 -1.17723 
