# vtk DataFile Version 3.0
#This file was generated by the deal.II library on 2026/1/5 at 14:19:39
ASCII
DATASET UNSTRUCTURED_GRID

POINTS 4096 double
0 0 0
0.03125 0 0
0 0.03125 0
0.03125 0.03125 0
0.03125 0 0
0.0625 0 0
0.03125 0.03125 0
0.0625 0.03125 0
0 0.03125 0
0.03125 0.03125 0
0 0.0625 0
0.03125 0.0625 0
0.03125 0.03125 0
0.0625 0.03125 0
0.03125 0.0625 0
0.0625 0.0625 0
0.0625 0 0
0.09375 0 0
0.0625 0.03125 0
0.09375 0.03125 0
0.09375 0 0
0.125 0 0
0.09375 0.03125 0
0.125 0.03125 0
0.0625 0.03125 0
0.09375 0.03125 0
0.0625 0.0625 0
0.09375 0.0625 0
0.09375 0.03125 0
0.125 0.03125 0
0.09375 0.0625 0
0.125 0.0625 0
0 0.0625 0
0.03125 0.0625 0
0 0.09375 0
0.03125 0.09375 0
0.03125 0.0625 0
0.0625 0.0625 0
0.03125 0.09375 0
0.0625 0.09375 0
0 0.09375 0
0.03125 0.09375 0
0 0.125 0
0.03125 0.125 0
0.03125 0.09375 0
0.0625 0.09375 0
0.03125 0.125 0
0.0625 0.125 0
0.0625 0.0625 0
0.09375 0.0625 0
0.0625 0.09375 0
0.09375 0.09375 0
0.09375 0.0625 0
0.125 0.0625 0
0.09375 0.09375 0
0.125 0.09375 0
0.0625 0.09375 0
0.09375 0.09375 0
0.0625 0.125 0
0.09375 0.125 0
0.09375 0.09375 0
0.125 0.09375 0
0.09375 0.125 0
0.125 0.125 0
0.125 0 0
0.15625 0 0
0.125 0.03125 0
0.15625 0.03125 0
0.15625 0 0
0.1875 0 0
0.15625 0.03125 0
0.1875 0.03125 0
0.125 0.03125 0
0.15625 0.03125 0
0.125 0.0625 0
0.15625 0.0625 0
0.15625 0.03125 0
0.1875 0.03125 0
0.15625 0.0625 0
0.1875 0.0625 0
0.1875 0 0
0.21875 0 0
0.1875 0.03125 0
0.21875 0.03125 0
0.21875 0 0
0.25 0 0
0.21875 0.03125 0
0.25 0.03125 0
0.1875 0.03125 0
0.21875 0.03125 0
0.1875 0.0625 0
0.21875 0.0625 0
0.21875 0.03125 0
0.25 0.03125 0
0.21875 0.0625 0
0.25 0.0625 0
0.125 0.0625 0
0.15625 0.0625 0
0.125 0.09375 0
0.15625 0.09375 0
0.15625 0.0625 0
0.1875 0.0625 0
0.15625 0.09375 0
0.1875 0.09375 0
0.125 0.09375 0
0.15625 0.09375 0
0.125 0.125 0
0.15625 0.125 0
0.15625 0.09375 0
0.1875 0.09375 0
0.15625 0.125 0
0.1875 0.125 0
0.1875 0.0625 0
0.21875 0.0625 0
0.1875 0.09375 0
0.21875 0.09375 0
0.21875 0.0625 0
0.25 0.0625 0
0.21875 0.09375 0
0.25 0.09375 0
0.1875 0.09375 0
0.21875 0.09375 0
0.1875 0.125 0
0.21875 0.125 0
0.21875 0.09375 0
0.25 0.09375 0
0.21875 0.125 0
0.25 0.125 0
0 0.125 0
0.03125 0.125 0
0 0.15625 0
0.03125 0.15625 0
0.03125 0.125 0
0.0625 0.125 0
0.03125 0.15625 0
0.0625 0.15625 0
0 0.15625 0
0.03125 0.15625 0
0 0.1875 0
0.03125 0.1875 0
0.03125 0.15625 0
0.0625 0.15625 0
0.03125 0.1875 0
0.0625 0.1875 0
0.0625 0.125 0
0.09375 0.125 0
0.0625 0.15625 0
0.09375 0.15625 0
0.09375 0.125 0
0.125 0.125 0
0.09375 0.15625 0
0.125 0.15625 0
0.0625 0.15625 0
0.09375 0.15625 0
0.0625 0.1875 0
0.09375 0.1875 0
0.09375 0.15625 0
0.125 0.15625 0
0.09375 0.1875 0
0.125 0.1875 0
0 0.1875 0
0.03125 0.1875 0
0 0.21875 0
0.03125 0.21875 0
0.03125 0.1875 0
0.0625 0.1875 0
0.03125 0.21875 0
0.0625 0.21875 0
0 0.21875 0
0.03125 0.21875 0
0 0.25 0
0.03125 0.25 0
0.03125 0.21875 0
0.0625 0.21875 0
0.03125 0.25 0
0.0625 0.25 0
0.0625 0.1875 0
0.09375 0.1875 0
0.0625 0.21875 0
0.09375 0.21875 0
0.09375 0.1875 0
0.125 0.1875 0
0.09375 0.21875 0
0.125 0.21875 0
0.0625 0.21875 0
0.09375 0.21875 0
0.0625 0.25 0
0.09375 0.25 0
0.09375 0.21875 0
0.125 0.21875 0
0.09375 0.25 0
0.125 0.25 0
0.125 0.125 0
0.15625 0.125 0
0.125 0.15625 0
0.15625 0.15625 0
0.15625 0.125 0
0.1875 0.125 0
0.15625 0.15625 0
0.1875 0.15625 0
0.125 0.15625 0
0.15625 0.15625 0
0.125 0.1875 0
0.15625 0.1875 0
0.15625 0.15625 0
0.1875 0.15625 0
0.15625 0.1875 0
0.1875 0.1875 0
0.1875 0.125 0
0.21875 0.125 0
0.1875 0.15625 0
0.21875 0.15625 0
0.21875 0.125 0
0.25 0.125 0
0.21875 0.15625 0
0.25 0.15625 0
0.1875 0.15625 0
0.21875 0.15625 0
0.1875 0.1875 0
0.21875 0.1875 0
0.21875 0.15625 0
0.25 0.15625 0
0.21875 0.1875 0
0.25 0.1875 0
0.125 0.1875 0
0.15625 0.1875 0
0.125 0.21875 0
0.15625 0.21875 0
0.15625 0.1875 0
0.1875 0.1875 0
0.15625 0.21875 0
0.1875 0.21875 0
0.125 0.21875 0
0.15625 0.21875 0
0.125 0.25 0
0.15625 0.25 0
0.15625 0.21875 0
0.1875 0.21875 0
0.15625 0.25 0
0.1875 0.25 0
0.1875 0.1875 0
0.21875 0.1875 0
0.1875 0.21875 0
0.21875 0.21875 0
0.21875 0.1875 0
0.25 0.1875 0
0.21875 0.21875 0
0.25 0.21875 0
0.1875 0.21875 0
0.21875 0.21875 0
0.1875 0.25 0
0.21875 0.25 0
0.21875 0.21875 0
0.25 0.21875 0
0.21875 0.25 0
0.25 0.25 0
0.25 0 0
0.28125 0 0
0.25 0.03125 0
0.28125 0.03125 0
0.28125 0 0
0.3125 0 0
0.28125 0.03125 0
0.3125 0.03125 0
0.25 0.03125 0
0.28125 0.03125 0
0.25 0.0625 0
0.28125 0.0625 0
0.28125 0.03125 0
0.3125 0.03125 0
0.28125 0.0625 0
0.3125 0.0625 0
0.3125 0 0
0.34375 0 0
0.3125 0.03125 0
0.34375 0.03125 0
0.34375 0 0
0.375 0 0
0.34375 0.03125 0
0.375 0.03125 0
0.3125 0.03125 0
0.34375 0.03125 0
0.3125 0.0625 0
0.34375 0.0625 0
0.34375 0.03125 0
0.375 0.03125 0
0.34375 0.0625 0
0.375 0.0625 0
0.25 0.0625 0
0.28125 0.0625 0
0.25 0.09375 0
0.28125 0.09375 0
0.28125 0.0625 0
0.3125 0.0625 0
0.28125 0.09375 0
0.3125 0.09375 0
0.25 0.09375 0
0.28125 0.09375 0
0.25 0.125 0
0.28125 0.125 0
0.28125 0.09375 0
0.3125 0.09375 0
0.28125 0.125 0
0.3125 0.125 0
0.3125 0.0625 0
0.34375 0.0625 0
0.3125 0.09375 0
0.34375 0.09375 0
0.34375 0.0625 0
0.375 0.0625 0
0.34375 0.09375 0
0.375 0.09375 0
0.3125 0.09375 0
0.34375 0.09375 0
0.3125 0.125 0
0.34375 0.125 0
0.34375 0.09375 0
0.375 0.09375 0
0.34375 0.125 0
0.375 0.125 0
0.375 0 0
0.40625 0 0
0.375 0.03125 0
0.40625 0.03125 0
0.40625 0 0
0.4375 0 0
0.40625 0.03125 0
0.4375 0.03125 0
0.375 0.03125 0
0.40625 0.03125 0
0.375 0.0625 0
0.40625 0.0625 0
0.40625 0.03125 0
0.4375 0.03125 0
0.40625 0.0625 0
0.4375 0.0625 0
0.4375 0 0
0.46875 0 0
0.4375 0.03125 0
0.46875 0.03125 0
0.46875 0 0
0.5 0 0
0.46875 0.03125 0
0.5 0.03125 0
0.4375 0.03125 0
0.46875 0.03125 0
0.4375 0.0625 0
0.46875 0.0625 0
0.46875 0.03125 0
0.5 0.03125 0
0.46875 0.0625 0
0.5 0.0625 0
0.375 0.0625 0
0.40625 0.0625 0
0.375 0.09375 0
0.40625 0.09375 0
0.40625 0.0625 0
0.4375 0.0625 0
0.40625 0.09375 0
0.4375 0.09375 0
0.375 0.09375 0
0.40625 0.09375 0
0.375 0.125 0
0.40625 0.125 0
0.40625 0.09375 0
0.4375 0.09375 0
0.40625 0.125 0
0.4375 0.125 0
0.4375 0.0625 0
0.46875 0.0625 0
0.4375 0.09375 0
0.46875 0.09375 0
0.46875 0.0625 0
0.5 0.0625 0
0.46875 0.09375 0
0.5 0.09375 0
0.4375 0.09375 0
0.46875 0.09375 0
0.4375 0.125 0
0.46875 0.125 0
0.46875 0.09375 0
0.5 0.09375 0
0.46875 0.125 0
0.5 0.125 0
0.25 0.125 0
0.28125 0.125 0
0.25 0.15625 0
0.28125 0.15625 0
0.28125 0.125 0
0.3125 0.125 0
0.28125 0.15625 0
0.3125 0.15625 0
0.25 0.15625 0
0.28125 0.15625 0
0.25 0.1875 0
0.28125 0.1875 0
0.28125 0.15625 0
0.3125 0.15625 0
0.28125 0.1875 0
0.3125 0.1875 0
0.3125 0.125 0
0.34375 0.125 0
0.3125 0.15625 0
0.34375 0.15625 0
0.34375 0.125 0
0.375 0.125 0
0.34375 0.15625 0
0.375 0.15625 0
0.3125 0.15625 0
0.34375 0.15625 0
0.3125 0.1875 0
0.34375 0.1875 0
0.34375 0.15625 0
0.375 0.15625 0
0.34375 0.1875 0
0.375 0.1875 0
0.25 0.1875 0
0.28125 0.1875 0
0.25 0.21875 0
0.28125 0.21875 0
0.28125 0.1875 0
0.3125 0.1875 0
0.28125 0.21875 0
0.3125 0.21875 0
0.25 0.21875 0
0.28125 0.21875 0
0.25 0.25 0
0.28125 0.25 0
0.28125 0.21875 0
0.3125 0.21875 0
0.28125 0.25 0
0.3125 0.25 0
0.3125 0.1875 0
0.34375 0.1875 0
0.3125 0.21875 0
0.34375 0.21875 0
0.34375 0.1875 0
0.375 0.1875 0
0.34375 0.21875 0
0.375 0.21875 0
0.3125 0.21875 0
0.34375 0.21875 0
0.3125 0.25 0
0.34375 0.25 0
0.34375 0.21875 0
0.375 0.21875 0
0.34375 0.25 0
0.375 0.25 0
0.375 0.125 0
0.40625 0.125 0
0.375 0.15625 0
0.40625 0.15625 0
0.40625 0.125 0
0.4375 0.125 0
0.40625 0.15625 0
0.4375 0.15625 0
0.375 0.15625 0
0.40625 0.15625 0
0.375 0.1875 0
0.40625 0.1875 0
0.40625 0.15625 0
0.4375 0.15625 0
0.40625 0.1875 0
0.4375 0.1875 0
0.4375 0.125 0
0.46875 0.125 0
0.4375 0.15625 0
0.46875 0.15625 0
0.46875 0.125 0
0.5 0.125 0
0.46875 0.15625 0
0.5 0.15625 0
0.4375 0.15625 0
0.46875 0.15625 0
0.4375 0.1875 0
0.46875 0.1875 0
0.46875 0.15625 0
0.5 0.15625 0
0.46875 0.1875 0
0.5 0.1875 0
0.375 0.1875 0
0.40625 0.1875 0
0.375 0.21875 0
0.40625 0.21875 0
0.40625 0.1875 0
0.4375 0.1875 0
0.40625 0.21875 0
0.4375 0.21875 0
0.375 0.21875 0
0.40625 0.21875 0
0.375 0.25 0
0.40625 0.25 0
0.40625 0.21875 0
0.4375 0.21875 0
0.40625 0.25 0
0.4375 0.25 0
0.4375 0.1875 0
0.46875 0.1875 0
0.4375 0.21875 0
0.46875 0.21875 0
0.46875 0.1875 0
0.5 0.1875 0
0.46875 0.21875 0
0.5 0.21875 0
0.4375 0.21875 0
0.46875 0.21875 0
0.4375 0.25 0
0.46875 0.25 0
0.46875 0.21875 0
0.5 0.21875 0
0.46875 0.25 0
0.5 0.25 0
0 0.25 0
0.03125 0.25 0
0 0.28125 0
0.03125 0.28125 0
0.03125 0.25 0
0.0625 0.25 0
0.03125 0.28125 0
0.0625 0.28125 0
0 0.28125 0
0.03125 0.28125 0
0 0.3125 0
0.03125 0.3125 0
0.03125 0.28125 0
0.0625 0.28125 0
0.03125 0.3125 0
0.0625 0.3125 0
0.0625 0.25 0
0.09375 0.25 0
0.0625 0.28125 0
0.09375 0.28125 0
0.09375 0.25 0
0.125 0.25 0
0.09375 0.28125 0
0.125 0.28125 0
0.0625 0.28125 0
0.09375 0.28125 0
0.0625 0.3125 0
0.09375 0.3125 0
0.09375 0.28125 0
0.125 0.28125 0
0.09375 0.3125 0
0.125 0.3125 0
0 0.3125 0
0.03125 0.3125 0
0 0.34375 0
0.03125 0.34375 0
0.03125 0.3125 0
0.0625 0.3125 0
0.03125 0.34375 0
0.0625 0.34375 0
0 0.34375 0
0.03125 0.34375 0
0 0.375 0
0.03125 0.375 0
0.03125 0.34375 0
0.0625 0.34375 0
0.03125 0.375 0
0.0625 0.375 0
0.0625 0.3125 0
0.09375 0.3125 0
0.0625 0.34375 0
0.09375 0.34375 0
0.09375 0.3125 0
0.125 0.3125 0
0.09375 0.34375 0
0.125 0.34375 0
0.0625 0.34375 0
0.09375 0.34375 0
0.0625 0.375 0
0.09375 0.375 0
0.09375 0.34375 0
0.125 0.34375 0
0.09375 0.375 0
0.125 0.375 0
0.125 0.25 0
0.15625 0.25 0
0.125 0.28125 0
0.15625 0.28125 0
0.15625 0.25 0
0.1875 0.25 0
0.15625 0.28125 0
0.1875 0.28125 0
0.125 0.28125 0
0.15625 0.28125 0
0.125 0.3125 0
0.15625 0.3125 0
0.15625 0.28125 0
0.1875 0.28125 0
0.15625 0.3125 0
0.1875 0.3125 0
0.1875 0.25 0
0.21875 0.25 0
0.1875 0.28125 0
0.21875 0.28125 0
0.21875 0.25 0
0.25 0.25 0
0.21875 0.28125 0
0.25 0.28125 0
0.1875 0.28125 0
0.21875 0.28125 0
0.1875 0.3125 0
0.21875 0.3125 0
0.21875 0.28125 0
0.25 0.28125 0
0.21875 0.3125 0
0.25 0.3125 0
0.125 0.3125 0
0.15625 0.3125 0
0.125 0.34375 0
0.15625 0.34375 0
0.15625 0.3125 0
0.1875 0.3125 0
0.15625 0.34375 0
0.1875 0.34375 0
0.125 0.34375 0
[...]
POINT_DATA 4096
SCALARS p double 1
LOOKUP_TABLE default
7.44337e-06 8.68774e-05 -6.8646e-05 1.33387e-05 8.68774e-05 0.000332649 1.33387e-05 0.000149972 -6.8646e-05 1.33387e-05 -0.000316669 -0.000122903 1.33387e-05 0.000149972 -0.000122903 1.59414e-05 0.000332649 0.000614879 0.000149972 0.000309598 0.000614879 0.000835638 0.000309598 0.000430089 0.000149972 0.000309598 1.59414e-05 0.000166555 0.000309598 0.000430089 0.000166555 0.000264927 -0.000316669 -0.000122903 -0.000608953 -0.000282733 -0.000122903 1.59414e-05 -0.000282733 -0.000127079 -0.000608953 -0.000282733 -0.000850093 -0.000404951 -0.000282733 -0.000127079 -0.000404951 -0.000214551 1.59414e-05 0.000166555 -0.000127079 2.84442e-05 0.000166555 0.000264927 2.84442e-05 0.000113512 -0.000127079 2.84442e-05 -0.000214551 -3.33516e-05 2.84442e-05 0.000113512 -3.33516e-05 5.78779e-05 0.000835638 0.00094562 0.000430089 0.000479675 0.00094562 0.000924561 0.000479675 0.000440577 0.000430089 0.000479675 0.000264927 0.000292249 0.000479675 0.000440577 0.000292249 0.000232427 0.000924561 0.00076698 0.000440577 0.000305526 0.00076698 0.0004753 0.000305526 7.33792e-05 0.000440577 0.000305526 0.000232427 7.81215e-05 0.000305526 7.33792e-05 7.81215e-05 -0.000172973 0.000264927 0.000292249 0.000113512 0.000127086 0.000292249 0.000232427 0.000127086 5.8711e-05 0.000113512 0.000127086 5.78779e-05 7.10463e-05 0.000127086 5.8711e-05 7.10463e-05 6.21061e-07 0.000232427 7.81215e-05 5.8711e-05 -9.60253e-05 7.81215e-05 -0.000172973 -9.60253e-05 -0.00033884 5.8711e-05 -9.60253e-05 6.21061e-07 -0.000154528 -9.60253e-05 -0.00033884 -0.000154528 -0.00039477 -0.000850093 -0.000404951 -0.000987758 -0.000453694 -0.000404951 -0.000214551 -0.000453694 -0.000221828 -0.000987758 -0.000453694 -0.0009937 -0.000404016 -0.000453694 -0.000221828 -0.000404016 -0.000123996 -0.000214551 -3.33516e-05 -0.000221828 -1.05326e-05 -3.33516e-05 5.78779e-05 -1.05326e-05 9.50017e-05 -0.000221828 -1.05326e-05 -0.000123996 0.000117128 -1.05326e-05 9.50017e-05 0.000117128 0.000241244 -0.0009937 -0.000404016 -0.000850822 -0.000238931 -0.000404016 -0.000123996 -0.000238931 9.75452e-05 -0.000850822 -0.000238931 -0.00054729 5.44582e-05 -0.000238931 9.75452e-05 5.44582e-05 0.000458308 -0.000123996 0.000117128 9.75452e-05 0.000365866 0.000117128 0.000241244 0.000365866 0.000510282 9.75452e-05 0.000365866 0.000458308 0.00075078 0.000365866 0.000510282 0.00075078 0.000916221 5.78779e-05 7.10463e-05 9.50017e-05 0.000114791 7.10463e-05 6.21061e-07 0.000114791 4.7404e-05 9.50017e-05 0.000114791 0.000241244 0.000271567 0.000114791 4.7404e-05 0.000271567 0.000209995 6.21061e-07 -0.000154528 4.7404e-05 -0.000105386 -0.000154528 -0.00039477 -0.000105386 -0.000342459 4.7404e-05 -0.000105386 0.000209995 6.05143e-05 -0.000105386 -0.000342459 6.05143e-05 -0.000174439 0.000241244 0.000271567 0.000510282 0.000552739 0.000271567 0.000209995 0.000552739 0.000498094 0.000510282 0.000552739 0.000916221 0.000971162 0.000552739 0.000498094 0.000971162 0.000923494 0.000209995 6.05143e-05 0.000498094 0.000351904 6.05143e-05 -0.000174439 0.000351904 0.00011762 0.000498094 0.000351904 0.000923494 0.000779802 0.000351904 0.00011762 0.000779802 0.000544315 0.0004753 5.5902e-05 7.33792e-05 -0.000253326 5.5902e-05 -0.00048289 -0.000253326 -0.000669868 7.33792e-05 -0.000253326 -0.000172973 -0.000519548 -0.000253326 -0.000669868 -0.000519548 -0.000957917 -0.00048289 -0.00113167 -0.000669868 -0.00117009 -0.00113167 -0.00188016 -0.00117009 -0.00174659 -0.000669868 -0.00117009 -0.000957917 -0.00148261 -0.00117009 -0.00174659 -0.00148261 -0.00208663 -0.000172973 -0.000519548 -0.00033884 -0.000668919 -0.000519548 -0.000957917 -0.000668919 -0.00108362 -0.00033884 -0.000668919 -0.00039477 -0.000719044 -0.000668919 -0.00108362 -0.000719044 -0.00112508 -0.000957917 -0.00148261 -0.00108362 -0.00157864 -0.00148261 -0.00208663 -0.00157864 -0.00214817 -0.00108362 -0.00157864 -0.00112508 -0.0016093 -0.00157864 -0.00214817 -0.0016093 -0.00216672 -0.00188016 -0.00271707 -0.00174659 -0.00239082 -0.00271707 -0.00362969 -0.00239082 -0.00309289 -0.00174659 -0.00239082 -0.00208663 -0.00276138 -0.00239082 -0.00309289 -0.00276138 -0.00349669 -0.00362969 -0.00460346 -0.00309289 -0.00384131 -0.00460346 -0.00562158 -0.00384131 -0.00462293 -0.00309289 -0.00384131 -0.00349669 -0.00428055 -0.00384131 -0.00462293 -0.00428055 -0.00509912 -0.00208663 -0.00276138 -0.00214817 -0.00278472 -0.00276138 -0.00349669 -0.00278472 -0.00347911 -0.00214817 -0.00278472 -0.00216672 -0.00279068 -0.00278472 -0.00347911 -0.00279068 -0.00347278 -0.00349669 -0.00428055 -0.00347911 -0.00422028 -0.00428055 -0.00509912 -0.00422028 -0.00499533 -0.00347911 -0.00422028 -0.00347278 -0.00420259 -0.00422028 -0.00499533 -0.00420259 -0.00496773 -0.00039477 -0.000719044 -0.000342459 -0.000662251 -0.000719044 -0.00112508 -0.000662251 -0.00106263 -0.000342459 -0.000662251 -0.000174439 -0.0004928 -0.000662251 -0.00106263 -0.0004928 -0.000892515 -0.00112508 -0.0016093 -0.00106263 -0.00154057 -0.0016093 -0.00216672 -0.00154057 -0.00209181 -0.00106263 -0.00154057 -0.000892515 -0.00137101 -0.00154057 -0.00209181 -0.00137101 -0.00192466 -0.000174439 -0.0004928 0.00011762 -0.000202321 -0.0004928 -0.000892515 -0.000202321 -0.000605963 0.00011762 -0.000202321 0.000544315 0.000219685 -0.000202321 -0.000605963 0.000219685 -0.000192341 -0.000892515 -0.00137101 -0.000605963 -0.00109116 -0.00137101 -0.00192466 -0.00109116 -0.00165498 -0.000605963 -0.00109116 -0.000192341 -0.00069015 -0.00109116 -0.00165498 -0.00069015 -0.00127155 -0.00216672 -0.00279068 -0.00209181 -0.00271052 -0.00279068 -0.00347278 -0.00271052 -0.00338903 -0.00209181 -0.00271052 -0.00192466 -0.00254838 -0.00271052 -0.00338903 -0.00254838 -0.00323526 -0.00347278 -0.00420259 -0.00338903 -0.00411759 -0.00420259 -0.00496773 -0.00411759 -0.00488427 -0.00338903 -0.00411759 -0.00323526 -0.00397617 -0.00411759 -0.00488427 -0.00397617 -0.00475949 -0.00192466 -0.00254838 -0.00165498 -0.00229311 -0.00254838 -0.00323526 -0.00229311 -0.0029994 -0.00165498 -0.00229311 -0.00127155 -0.00193311 -0.00229311 -0.0029994 -0.00193311 -0.00266948 -0.00323526 -0.00397617 -0.0029994 -0.00376531 -0.00397617 -0.00475949 -0.00376531 -0.00457951 -0.0029994 -0.00376531 -0.00266948 -0.00347282 -0.00376531 -0.00457951 -0.00347282 -0.00433211 -0.00054729 5.44582e-05 -7.30978e-05 0.000487244 5.44582e-05 0.000458308 0.000487244 0.000972155 -7.30978e-05 0.000487244 0.000581967 0.0010703 0.000487244 0.000972155 0.0010703 0.00165273 0.000458308 0.00075078 0.000972155 0.00128613 0.00075078 0.000916221 0.00128613 0.00147318 0.000972155 0.00128613 0.00165273 0.00198625 0.00128613 0.00147318 0.00198625 0.00219582 0.000581967 0.0010703 0.0014296 0.0018153 0.0010703 0.00165273 0.0018153 0.00251446 0.0014296 0.0018153 0.00248381 0.00273554 0.0018153 0.00251446 0.00273554 0.0035734 0.00165273 0.00198625 0.00251446 0.00286638 0.00198625 0.00219582 0.00286638 0.00309995 0.00251446 0.00286638 0.0035734 0.00394332 0.00286638 0.00309995 0.00394332 0.00420303 0.000916221 0.000971162 0.00147318 0.00154044 0.000971162 0.000923494 0.00154044 0.00149926 0.00147318 0.00154044 0.00219582 0.00227527 0.00154044 0.00149926 0.00227527 0.00224003 0.000923494 0.000779802 0.00149926 0.00135692 0.000779802 0.000544315 0.00135692 0.00111828 0.00149926 0.00135692 0.00224003 0.00209795 0.00135692 0.00111828 0.00209795 0.0018545 0.00219582 0.00227527 0.00309995 0.00319171 0.00227527 0.00224003 0.00319171 0.00316214 0.00309995 0.00319171 0.00420303 0.00430769 0.00319171 0.00316214 0.00430769 0.00428402 0.00224003 0.00209795 0.00316214 0.00301968 0.00209795 0.0018545 0.00301968 0.00277042 0.00316214 0.00301968 0.00428402 0.00414118 0.00301968 0.00277042 0.00414118 0.00388606 0.00248381 0.00273554 0.00376146 0.00384655 0.00273554 0.0035734 0.00384655 0.00484795 0.00376146 0.00384655 0.00528278 0.00516665 0.00384655 0.00484795 0.00516665 0.00635959 0.0035734 0.00394332 0.00484795 0.00523611 0.00394332 0.00420303 0.00523611 0.00552476 0.00484795 0.00523611 0.00635959 0.00676674 0.00523611 0.00552476 0.00676674 0.00708758 0.00528278 0.00516665 0.00707194 0.00671766 0.00516665 0.00635959 0.00671766 0.00813371 0.00707194 0.00671766 0.00915792 0.0085258 0.00671766 0.00813371 0.0085258 0.0102006 0.00635959 0.00676674 0.00813371 0.00856085 0.00676674 0.00708758 0.00856085 0.00891738 0.00813371 0.00856085 0.0102006 0.0106487 0.00856085 0.00891738 0.0106487 0.0110441 0.00420303 0.00430769 0.00552476 0.00564341 0.00430769 0.00428402 0.00564341 0.00562642 0.00552476 0.00564341 0.00708758 0.00722159 0.00564341 0.00562642 0.00722159 0.0072125 0.00428402 0.00414118 0.00562642 0.00548398 0.00414118 0.00388606 0.00548398 0.00522411 0.00562642 0.00548398 0.0072125 0.00707198 0.00548398 0.00522411 0.00707198 0.00680963 0.00708758 0.00722159 0.00891738 0.00906801 0.00722159 0.0072125 0.00906801 0.00906804 0.00891738 0.00906801 0.0110441 0.0112119 0.00906801 0.00906804 0.0112119 0.0112215 0.0072125 0.00707198 0.00906804 0.00893134 0.00707198 0.00680963 0.00893134 0.0086697 0.00906804 0.00893134 0.0112215 0.0110902 0.00893134 0.0086697 0.0110902 0.0108327 0.000544315 0.000219685 0.00111828 0.000786058 0.000219685 -0.000192341 0.000786058 0.000361658 0.00111828 0.000786058 0.0018545 0.00151234 0.000786058 0.000361658 0.00151234 0.00107241 -0.000192341 -0.00069015 0.000361658 -0.00015397 -0.00069015 -0.00127155 -0.00015397 -0.000759548 0.000361658 -0.00015397 0.00107241 0.000534832 -0.00015397 -0.000759548 0.000534832 -0.000100237 0.0018545 0.00151234 0.00277042 0.00241694 0.00151234 0.00107241 0.00241694 0.00195963 0.00277042 0.00241694 0.00388606 0.00352123 0.00241694 0.00195963 0.00352123 0.00304641 0.00107241 0.000534832 0.00195963 0.00139756 0.000534832 -0.000100237 0.00139756 0.00072951 0.00195963 0.00139756 0.00304641 0.00245946 0.00139756 0.00072951 0.00245946 0.00175744 -0.00127155 -0.00193311 -0.000759548 -0.00145264 -0.00193311 -0.00266948 -0.00145264 -0.00222894 -0.000759548 -0.00145264 -0.000100237 -0.00083165 -0.00145264 -0.00222894 -0.00083165 -0.00165641 -0.00266948 -0.00347282 -0.00222894 -0.00308145 -0.00347282 -0.00433211 -0.00308145 -0.00399964 -0.00222894 -0.00308145 -0.00165641 -0.00256868 -0.00308145 -0.00399964 -0.00256868 -0.00355878 -0.000100237 -0.00083165 0.00072951 -4.50225e-05 -0.00083165 -0.00165641 -4.50225e-05 -0.000924739 0.00072951 -4.50225e-05 0.00175744 0.000937813 -4.50225e-05 -0.000924739 0.000937813 -3.71439e-07 -0.00165641 -0.00256868 -0.000924739 -0.00190548 -0.00256868 -0.00355878 -0.00190548 -0.00297896 -0.000924739 -0.00190548 -3.71439e-07 -0.00105529 -0.00190548 -0.00297896 -0.00105529 -0.00222087 0.00388606 0.00352123 0.00522411 0.00484949 0.00352123 0.00304641 0.00484949 0.00435917 0.00522411 0.00484949 0.00680963 0.00642851 0.00484949 0.00435917 0.00642851 0.00592703 0.00304641 0.00245946 0.00435917 0.00374958 0.00245946 0.00175744 0.00374958 0.00301582 0.00435917 0.00374958 0.00592703 0.00530015 0.00374958 0.00301582 0.00530015 0.00454076 0.00680963 0.00642851 0.0086697 0.00828689 0.00642851 0.00592703 0.00828689 0.00778096 0.0086697 0.00828689 0.0108327 0.010454 0.00828689 0.00778096 0.010454 0.00995218 0.00592703 0.00530015 0.00778096 0.00714539 0.00530015 0.00454076 0.00714539 0.00637077 0.00778096 0.00714539 0.00995218 0.0093195 0.00714539 0.00637077 0.0093195 0.00854434 0.00175744 0.000937813 0.00301582 0.00215284 0.000937813 -3.71439e-07 0.00215284 0.00115684 0.00301582 0.00215284 0.00454076 0.00364089 0.00215284 0.00115684 0.00364089 0.00259323 -3.71439e-07 -0.00105529 0.00115684 2.64571e-05 -0.00105529 -0.00222087 2.64571e-05 -0.00123551 0.00115684 2.64571e-05 0.00259323 0.00139227 2.64571e-05 -0.00123551 0.00139227 3.62573e-05 0.00454076 0.00364089 0.00637077 0.00544597 0.00364089 0.00259323 0.00544597 0.00435955 0.00637077 0.00544597 0.00854434 0.00761235 0.00544597 0.00435955 0.00761235 0.00650775 0.00259323 0.00139227 0.00435955 0.00310099 0.00139227 3.62573e-05 0.00310099 0.00166255 0.00435955 0.00310099 0.00650775 0.00521429 0.00310099 0.00166255 0.00521429 0.00371702 -0.00562158 -0.00666484 -0.00462293 -0.00542269 -0.00666484 -0.0077116 -0.00542269 -0.00622383 -0.00462293 -0.00542269 -0.00509912 -0.00593655 -0.00542269 -0.00622383 -0.00593655 -0.00677523 -0.0077116 -0.00873798 -0.00622383 -0.00700802 -0.00873798 -0.00971838 -0.00700802 -0.00775588 -0.00622383 -0.00700802 -0.00677523 -0.00759591 -0.00700802 -0.00775588 -0.00759591 -0.00837843 -0.00509912 -0.00593655 -0.00499533 -0.0057893 -0.00593655 -0.00677523 -0.0057893 -0.00658549 -0.00499533 -0.0057893 -0.00496773 -0.00575361 -0.0057893 -0.00658549 -0.00575361 -0.00654372 -0.00677523 -0.00759591 -0.00658549 -0.00736553 -0.00759591 -0.00837843 -0.00736553 -0.00811018 -0.00658549 -0.00736553 -0.00654372 -0.0073197 -0.00736553 -0.00811018 -0.0073197 -0.00806222 -0.00971838 -0.0106261 -0.00775588 -0.00844753 -0.0106261 -0.0114345 -0.00844753 -0.0090635 -0.00775588 -0.00844753 -0.00837843 -0.00910223 -0.00844753 -0.0090635 -0.00910223 -0.00974752 -0.0114345 -0.0121183 -0.0090635 -0.00958587 -0.0121183 -0.0126553 -0.00958587 -0.00999949 -0.0090635 -0.00958587 -0.00974752 -0.0102963 -0.00958587 -0.00999949 -0.0102963 -0.0107337 -0.00837843 -0.00910223 -0.00811018 -0.00879987 -0.00910223 -0.00974752 -0.00879987 -0.00941579 -0.00811018 -0.00879987 -0.00806222 -0.0087514 -0.00879987 -0.00941579 -0.0087514 -0.00936808 -0.00974752 -0.0102963 -0.00941579 -0.00994095 -0.0102963 -0.0107337 -0.00994095 -0.0103616 -0.00941579 -0.00994095 -0.00936808 -0.00989483 -0.00994095 -0.0103616 -0.00989483 -0.0103174 -0.00496773 -0.00575361 -0.00488427 -0.00567471 -0.00575361 -0.00654372 -0.00567471 -0.00647236 -0.00488427 -0.00567471 -0.00475949 -0.00557088 -0.00567471 -0.00647236 -0.00557088 -0.00639348 -0.00654372 -0.0073197 -0.00647236 -0.00725855 -0.0073197 -0.00806222 -0.00725855 -0.00801329 -0.00647236 -0.00725855 -0.00639348 -0.00720792 -0.00725855 -0.00801329 -0.00720792 -0.00799296 -0.00475949 -0.00557088 -0.00457951 -0.00542761 -0.00557088 -0.00639348 -0.00542761 -0.00629214 -0.00457951 -0.00542761 -0.00433211 -0.00523287 -0.00542761 -0.00629214 -0.00523287 -0.00615689 -0.00639348 -0.00720792 -0.00629214 -0.00715265 -0.00720792 -0.00799296 -0.00715265 -0.00798614 -0.00629214 -0.00715265 -0.00615689 -0.00708229 -0.00715265 -0.00798614 -0.00708229 -0.00798381 -0.00806222 -0.0087514 -0.00801329 -0.00871582 -0.0087514 -0.00936808 -0.00871582 -0.00934584 -0.00801329 -0.00871582 -0.00799296 -0.00872621 -0.00871582 -0.00934584 -0.00872621 -0.00938545 -0.00936808 -0.00989483 -0.00934584 -0.00988467 -0.00989483 -0.0103174 -0.00988467 -0.0103168 -0.00934584 -0.00988467 -0.00938545 -0.00994991 -0.00988467 -0.0103168 -0.00994991 -0.010402 -0.00799296 -0.00872621 -0.00798614 -0.00876795 -0.00872621 -0.00938545 -0.00876795 -0.00947302 -0.00798614 -0.00876795 -0.00798381 -0.0088338 -0.00876795 -0.00947302 -0.0088338 -0.00960355 -0.00938545 -0.00994991 -0.00947302 -0.0100776 -0.00994991 -0.010402 -0.0100776 -0.0105612 -0.00947302 -0.0100776 -0.00960355 -0.0102653 -0.0100776 -0.0105612 -0.0102653 -0.0107945 -0.0126553 -0.0130286 -0.00999949 -0.0102935 -0.0130286 -0.0132282 -0.0102935 -0.0104635 -0.00999949 -0.0102935 -0.0107337 -0.0110499 -0.0102935 -0.0104635 -0.0110499 -0.0112413 -0.0132282 -0.013256 -0.0104635 -0.010511 -0.013256 -0.0131208 -0.010511 -0.0104596 -0.0104635 -0.010511 -0.0112413 -0.0113111 -0.010511 -0.0104596 -0.0113111 -0.0112809 -0.0107337 -0.0110499 -0.0103616 -0.0106684 -0.0110499 -0.0112413 -0.0106684 -0.0108585 -0.0103616 -0.0106684 -0.0103174 -0.0106261 -0.0106684 -0.0108585 -0.0106261 -0.0108172 -0.0112413 -0.0113111 -0.0108585 -0.010934 -0.0113111 -0.0112809 -0.010934 -0.0109146 -0.0108585 -0.010934 -0.0108172 -0.0108917 -0.010934 -0.0109146 -0.0108917 -0.0108665 -0.0131208 -0.0128856 -0.0104596 -0.0102825 -0.0128856 -0.0125704 -0.0102825 -0.010306 -0.0104596 -0.0102825 -0.0112809 -0.0111299 -0.0102825 -0.010306 -0.0111299 -0.011148 -0.0125704 -0.0117188 -0.010306 -0.00915752 -0.0117188 -0.0127623 -0.00915752 -0.0115619 -0.010306 -0.00915752 -0.011148 -0.0100097 -0.00915752 -0.0115619 -0.0100097 -0.0118872 -0.0112809 -0.0111299 -0.0109146 -0.0107717 -0.0111299 -0.011148 -0.0107717 -0.0107907 -0.0109146 -0.0107717 -0.0108665 -0.0107107 -0.0107717 -0.0107907 -0.0107107 -0.0106945 -0.011148 -0.0100097 -0.0107907 -0.00962192 -0.0100097 -0.0118872 -0.00962192 -0.011564 -0.0107907 -0.00962192 -0.0106945 -0.00949526 -0.00962192 -0.011564 -0.00949526 -0.0112533 -0.0103174 -0.0106261 -0.0103168 -0.0106312 -0.0106261 -0.0108172 -0.0106312 -0.010823 -0.0103168 -0.0106312 -0.010402 -0.0107287 -0.0106312 -0.010823 -0.0107287 -0.0109234 -0.0108172 -0.0108917 -0.010823 -0.0108916 -0.0108917 -0.0108665 -0.0108916 -0.0108523 -0.010823 -0.0108916 -0.0109234 -0.0109846 -0.0108916 -0.0108523 -0.0109846 -0.0109263 -0.010402 -0.0107287 -0.0105612 -0.0109082 -0.0107287 -0.0109234 -0.0109082 -0.0111101 -0.0105612 -0.0109082 -0.0107945 -0.0111722 -0.0109082 -0.0111101 -0.0111722 -0.0113873 -0.0109234 -0.0109846 -0.0111101 -0.011164 -0.0109846 -0.0109263 -0.011164 -0.0110842 -0.0111101 -0.011164 -0.0113873 -0.0114361 -0.011164 -0.0110842 -0.0114361 -0.0113333 -0.0108665 -0.0107107 -0.0108523 -0.0106722 -0.0107107 -0.0106945 -0.0106722 -0.0106154 -0.0108523 -0.0106722 -0.0109263 -0.0107155 -0.0106722 -0.0106154 -0.0107155 -0.0106144 -0.0106945 -0.00949526 -0.0106154 -0.00937395 -0.00949526 -0.0112533 -0.00937395 -0.0110428 -0.0106154 -0.00937395 -0.0106144 -0.00932735 -0.00937395 -0.0110428 -0.00932735 -0.0109185 -0.0109263 -0.0107155 -0.0110842 -0.0108385 -0.0107155 -0.0106144 -0.0108385 -0.0106916 -0.0110842 -0.0108385 -0.0113333 -0.0110486 -0.0108385 -0.0106916 -0.0110486 -0.010853 -0.0106144 -0.00932735 -0.0106916 -0.00935118 -0.00932735 -0.0109185 -0.00935118 -0.0108879 -0.0106916 -0.00935118 -0.010853 -0.0094488 -0.00935118 -0.0108879 -0.0094488 -0.0109452 -0.00433211 -0.00523287 -0.00399964 -0.00496903 -0.00523287 -0.00615689 -0.00496903 -0.00597067 -0.00399964 -0.00496903 -0.00355878 -0.00461253 -0.00496903 -0.00597067 -0.00461253 -0.00571038 -0.00615689 -0.00708229 -0.00597067 -0.00698101 -0.00708229 -0.00798381 -0.00698101 -0.0079721 -0.00597067 -0.00698101 -0.00571038 -0.00682706 -0.00698101 -0.0079721 -0.00682706 -0.00793158 -0.00355878 -0.00461253 -0.00297896 -0.00413182 -0.00461253 -0.00571038 -0.00413182 -0.00534438 -0.00297896 -0.00413182 -0.00222087 -0.00348544 -0.00413182 -0.00534438 -0.00348544 -0.00483006 -0.00571038 -0.00682706 -0.00534438 -0.0065899 -0.00682706 -0.00793158 -0.0065899 -0.00783421 -0.00534438 -0.0065899 -0.00483006 -0.00622721 -0.0065899 -0.00783421 -0.00622721 -0.00763983 -0.00798381 -0.0088338 -0.0079721 -0.00891248 -0.0088338 -0.00960355 -0.00891248 -0.00976881 -0.0079721 -0.00891248 -0.00793158 -0.00898798 -0.00891248 -0.00976881 -0.00898798 -0.00995707 -0.00960355 -0.0102653 -0.00976881 -0.0105081 -0.0102653 -0.0107945 -0.0105081 -0.0111005 -0.00976881 -0.0105081 -0.00995707 -0.010799 -0.0105081 -0.0111005 -0.010799 -0.0114771 -0.00793158 -0.00898798 -0.00783421 -0.00903621 -0.00898798 -0.00995707 -0.00903621 -0.0101496 -0.00783421 -0.00903621 -0.00763983 -0.00902139 -0.00903621 -0.0101496 -0.00902139 -0.0103173 -0.00995707 -0.010799 -0.0101496 -0.011126 -0.010799 -0.0114771 -0.011126 -0.0119191 -0.0101496 -0.011126 -0.0103173 -0.0114682 -0.011126 -0.0119191 -0.0114682 -0.0124155 -0.00222087 -0.00348544 -0.00123551 -0.00262035 -0.00348544 -0.00483006 -0.00262035 -0.0041113 -0.00123551 -0.00262035 3.62573e-05 -0.00147076 -0.00262035 -0.0041113 -0.00147076 -0.00311624 -0.00483006 -0.00622721 -0.0041113 -0.00568138 -0.00622721 -0.00763983 -0.00568138 -0.00729173 -0.0041113 -0.00568138 -0.00311624 -0.00487609 -0.00568138 -0.00729173 -0.00487609 -0.00671174 3.62573e-05 -0.00147076 0.00166255 4.15926e-05 -0.00147076 -0.00311624 4.15926e-05 -0.00175633 0.00166255 4.15926e-05 0.00371702 0.00200441 4.15926e-05 -0.00175633 0.00200441 7.17505e-05 -0.00311624 -0.00487609 -0.00175633 -0.00371339 -0.00487609 -0.00671174 -0.00371339 -0.0057