# vtk DataFile Version 3.0
#This file was generated by the deal.II library on 2026/1/5 at 14:19:30
ASCII
DATASET UNSTRUCTURED_GRID

POINTS 4096 double
0 0 0
0.03125 0 0
0 0.03125 0
0.03125 0.03125 0
0.03125 0 0
0.0625 0 0
0.03125 0.03125 0
0.0625 0.03125 0
0 0.03125 0
0.03125 0.03125 0
0 0.0625 0
0.03125 0.0625 0
0.03125 0.03125 0
0.0625 0.03125 0
0.03125 0.0625 0
0.0625 0.0625 0
0.0625 0 0
0.09375 0 0
0.0625 0.03125 0
0.09375 0.03125 0
0.09375 0 0
0.125 0 0
0.09375 0.03125 0
0.125 0.03125 0
0.0625 0.03125 0
0.09375 0.03125 0
0.0625 0.0625 0
0.09375 0.0625 0
0.09375 0.03125 0
0.125 0.03125 0
0.09375 0.0625 0
0.125 0.0625 0
0 0.0625 0
0.03125 0.0625 0
0 0.09375 0
0.03125 0.09375 0
0.03125 0.0625 0
0.0625 0.0625 0
0.03125 0.09375 0
0.0625 0.09375 0
0 0.09375 0
0.03125 0.09375 0
0 0.125 0
0.03125 0.125 0
0.03125 0.09375 0
0.0625 0.09375 0
0.03125 0.125 0
0.0625 0.125 0
0.0625 0.0625 0
0.09375 0.0625 0
0.0625 0.09375 0
0.09375 0.09375 0
0.09375 0.0625 0
0.125 0.0625 0
0.09375 0.09375 0
0.125 0.09375 0
0.0625 0.09375 0
0.09375 0.09375 0
0.0625 0.125 0
0.09375 0.125 0
0.09375 0.09375 0
0.125 0.09375 0
0.09375 0.125 0
0.125 0.125 0
0.125 0 0
0.15625 0 0
0.125 0.03125 0
0.15625 0.03125 0
0.15625 0 0
0.1875 0 0
0.15625 0.03125 0
0.1875 0.03125 0
0.125 0.03125 0
0.15625 0.03125 0
0.125 0.0625 0
0.15625 0.0625 0
0.15625 0.03125 0
0.1875 0.03125 0
0.15625 0.0625 0
0.1875 0.0625 0
0.1875 0 0
0.21875 0 0
0.1875 0.03125 0
0.21875 0.03125 0
0.21875 0 0
0.25 0 0
0.21875 0.03125 0
0.25 0.03125 0
0.1875 0.03125 0
0.21875 0.03125 0
0.1875 0.0625 0
0.21875 0.0625 0
0.21875 0.03125 0
0.25 0.03125 0
0.21875 0.0625 0
0.25 0.0625 0
0.125 0.0625 0
0.15625 0.0625 0
0.125 0.09375 0
0.15625 0.09375 0
0.15625 0.0625 0
0.1875 0.0625 0
0.15625 0.09375 0
0.1875 0.09375 0
0.125 0.09375 0
0.15625 0.09375 0
0.125 0.125 0
0.15625 0.125 0
0.15625 0.09375 0
0.1875 0.09375 0
0.15625 0.125 0
0.1875 0.125 0
0.1875 0.0625 0
0.21875 0.0625 0
0.1875 0.09375 0
0.21875 0.09375 0
0.21875 0.0625 0
0.25 0.0625 0
0.21875 0.09375 0
0.25 0.09375 0
0.1875 0.09375 0
0.21875 0.09375 0
0.1875 0.125 0
0.21875 0.125 0
0.21875 0.09375 0
0.25 0.09375 0
0.21875 0.125 0
0.25 0.125 0
0 0.125 0
0.03125 0.125 0
0 0.15625 0
0.03125 0.15625 0
0.03125 0.125 0
0.0625 0.125 0
0.03125 0.15625 0
0.0625 0.15625 0
0 0.15625 0
0.03125 0.15625 0
0 0.1875 0
0.03125 0.1875 0
0.03125 0.15625 0
0.0625 0.15625 0
0.03125 0.1875 0
0.0625 0.1875 0
0.0625 0.125 0
0.09375 0.125 0
0.0625 0.15625 0
0.09375 0.15625 0
0.09375 0.125 0
0.125 0.125 0
0.09375 0.15625 0
0.125 0.15625 0
0.0625 0.15625 0
0.09375 0.15625 0
0.0625 0.1875 0
0.09375 0.1875 0
0.09375 0.15625 0
0.125 0.15625 0
0.09375 0.1875 0
0.125 0.1875 0
0 0.1875 0
0.03125 0.1875 0
0 0.21875 0
0.03125 0.21875 0
0.03125 0.1875 0
0.0625 0.1875 0
0.03125 0.21875 0
0.0625 0.21875 0
0 0.21875 0
0.03125 0.21875 0
0 0.25 0
0.03125 0.25 0
0.03125 0.21875 0
0.0625 0.21875 0
0.03125 0.25 0
0.0625 0.25 0
0.0625 0.1875 0
0.09375 0.1875 0
0.0625 0.21875 0
0.09375 0.21875 0
0.09375 0.1875 0
0.125 0.1875 0
0.09375 0.21875 0
0.125 0.21875 0
0.0625 0.21875 0
0.09375 0.21875 0
0.0625 0.25 0
0.09375 0.25 0
0.09375 0.21875 0
0.125 0.21875 0
0.09375 0.25 0
0.125 0.25 0
0.125 0.125 0
0.15625 0.125 0
0.125 0.15625 0
0.15625 0.15625 0
0.15625 0.125 0
0.1875 0.125 0
0.15625 0.15625 0
0.1875 0.15625 0
0.125 0.15625 0
0.15625 0.15625 0
0.125 0.1875 0
0.15625 0.1875 0
0.15625 0.15625 0
0.1875 0.15625 0
0.15625 0.1875 0
0.1875 0.1875 0
0.1875 0.125 0
0.21875 0.125 0
0.1875 0.15625 0
0.21875 0.15625 0
0.21875 0.125 0
0.25 0.125 0
0.21875 0.15625 0
0.25 0.15625 0
0.1875 0.15625 0
0.21875 0.15625 0
0.1875 0.1875 0
0.21875 0.1875 0
0.21875 0.15625 0
0.25 0.15625 0
0.21875 0.1875 0
0.25 0.1875 0
0.125 0.1875 0
0.15625 0.1875 0
0.125 0.21875 0
0.15625 0.21875 0
0.15625 0.1875 0
0.1875 0.1875 0
0.15625 0.21875 0
0.1875 0.21875 0
0.125 0.21875 0
0.15625 0.21875 0
0.125 0.25 0
0.15625 0.25 0
0.15625 0.21875 0
0.1875 0.21875 0
0.15625 0.25 0
0.1875 0.25 0
0.1875 0.1875 0
0.21875 0.1875 0
0.1875 0.21875 0
0.21875 0.21875 0
0.21875 0.1875 0
0.25 0.1875 0
0.21875 0.21875 0
0.25 0.21875 0
0.1875 0.21875 0
0.21875 0.21875 0
0.1875 0.25 0
0.21875 0.25 0
0.21875 0.21875 0
0.25 0.21875 0
0.21875 0.25 0
0.25 0.25 0
0.25 0 0
0.28125 0 0
0.25 0.03125 0
0.28125 0.03125 0
0.28125 0 0
0.3125 0 0
0.28125 0.03125 0
0.3125 0.03125 0
0.25 0.03125 0
0.28125 0.03125 0
0.25 0.0625 0
0.28125 0.0625 0
0.28125 0.03125 0
0.3125 0.03125 0
0.28125 0.0625 0
0.3125 0.0625 0
0.3125 0 0
0.34375 0 0
0.3125 0.03125 0
0.34375 0.03125 0
0.34375 0 0
0.375 0 0
0.34375 0.03125 0
0.375 0.03125 0
0.3125 0.03125 0
0.34375 0.03125 0
0.3125 0.0625 0
0.34375 0.0625 0
0.34375 0.03125 0
0.375 0.03125 0
0.34375 0.0625 0
0.375 0.0625 0
0.25 0.0625 0
0.28125 0.0625 0
0.25 0.09375 0
0.28125 0.09375 0
0.28125 0.0625 0
0.3125 0.0625 0
0.28125 0.09375 0
0.3125 0.09375 0
0.25 0.09375 0
0.28125 0.09375 0
0.25 0.125 0
0.28125 0.125 0
0.28125 0.09375 0
0.3125 0.09375 0
0.28125 0.125 0
0.3125 0.125 0
0.3125 0.0625 0
0.34375 0.0625 0
0.3125 0.09375 0
0.34375 0.09375 0
0.34375 0.0625 0
0.375 0.0625 0
0.34375 0.09375 0
0.375 0.09375 0
0.3125 0.09375 0
0.34375 0.09375 0
0.3125 0.125 0
0.34375 0.125 0
0.34375 0.09375 0
0.375 0.09375 0
0.34375 0.125 0
0.375 0.125 0
0.375 0 0
0.40625 0 0
0.375 0.03125 0
0.40625 0.03125 0
0.40625 0 0
0.4375 0 0
0.40625 0.03125 0
0.4375 0.03125 0
0.375 0.03125 0
0.40625 0.03125 0
0.375 0.0625 0
0.40625 0.0625 0
0.40625 0.03125 0
0.4375 0.03125 0
0.40625 0.0625 0
0.4375 0.0625 0
0.4375 0 0
0.46875 0 0
0.4375 0.03125 0
0.46875 0.03125 0
0.46875 0 0
0.5 0 0
0.46875 0.03125 0
0.5 0.03125 0
0.4375 0.03125 0
0.46875 0.03125 0
0.4375 0.0625 0
0.46875 0.0625 0
0.46875 0.03125 0
0.5 0.03125 0
0.46875 0.0625 0
0.5 0.0625 0
0.375 0.0625 0
0.40625 0.0625 0
0.375 0.09375 0
0.40625 0.09375 0
0.40625 0.0625 0
0.4375 0.0625 0
0.40625 0.09375 0
0.4375 0.09375 0
0.375 0.09375 0
0.40625 0.09375 0
0.375 0.125 0
0.40625 0.125 0
0.40625 0.09375 0
0.4375 0.09375 0
0.40625 0.125 0
0.4375 0.125 0
0.4375 0.0625 0
0.46875 0.0625 0
0.4375 0.09375 0
0.46875 0.09375 0
0.46875 0.0625 0
0.5 0.0625 0
0.46875 0.09375 0
0.5 0.09375 0
0.4375 0.09375 0
0.46875 0.09375 0
0.4375 0.125 0
0.46875 0.125 0
0.46875 0.09375 0
0.5 0.09375 0
0.46875 0.125 0
0.5 0.125 0
0.25 0.125 0
0.28125 0.125 0
0.25 0.15625 0
0.28125 0.15625 0
0.28125 0.125 0
0.3125 0.125 0
0.28125 0.15625 0
0.3125 0.15625 0
0.25 0.15625 0
0.28125 0.15625 0
0.25 0.1875 0
0.28125 0.1875 0
0.28125 0.15625 0
0.3125 0.15625 0
0.28125 0.1875 0
0.3125 0.1875 0
0.3125 0.125 0
0.34375 0.125 0
0.3125 0.15625 0
0.34375 0.15625 0
0.34375 0.125 0
0.375 0.125 0
0.34375 0.15625 0
0.375 0.15625 0
0.3125 0.15625 0
0.34375 0.15625 0
0.3125 0.1875 0
0.34375 0.1875 0
0.34375 0.15625 0
0.375 0.15625 0
0.34375 0.1875 0
0.375 0.1875 0
0.25 0.1875 0
0.28125 0.1875 0
0.25 0.21875 0
0.28125 0.21875 0
0.28125 0.1875 0
0.3125 0.1875 0
0.28125 0.21875 0
0.3125 0.21875 0
0.25 0.21875 0
0.28125 0.21875 0
0.25 0.25 0
0.28125 0.25 0
0.28125 0.21875 0
0.3125 0.21875 0
0.28125 0.25 0
0.3125 0.25 0
0.3125 0.1875 0
0.34375 0.1875 0
0.3125 0.21875 0
0.34375 0.21875 0
0.34375 0.1875 0
0.375 0.1875 0
0.34375 0.21875 0
0.375 0.21875 0
0.3125 0.21875 0
0.34375 0.21875 0
0.3125 0.25 0
0.34375 0.25 0
0.34375 0.21875 0
0.375 0.21875 0
0.34375 0.25 0
0.375 0.25 0
0.375 0.125 0
0.40625 0.125 0
0.375 0.15625 0
0.40625 0.15625 0
0.40625 0.125 0
0.4375 0.125 0
0.40625 0.15625 0
0.4375 0.15625 0
0.375 0.15625 0
0.40625 0.15625 0
0.375 0.1875 0
0.40625 0.1875 0
0.40625 0.15625 0
0.4375 0.15625 0
0.40625 0.1875 0
0.4375 0.1875 0
0.4375 0.125 0
0.46875 0.125 0
0.4375 0.15625 0
0.46875 0.15625 0
0.46875 0.125 0
0.5 0.125 0
0.46875 0.15625 0
0.5 0.15625 0
0.4375 0.15625 0
0.46875 0.15625 0
0.4375 0.1875 0
0.46875 0.1875 0
0.46875 0.15625 0
0.5 0.15625 0
0.46875 0.1875 0
0.5 0.1875 0
0.375 0.1875 0
0.40625 0.1875 0
0.375 0.21875 0
0.40625 0.21875 0
0.40625 0.1875 0
0.4375 0.1875 0
0.40625 0.21875 0
0.4375 0.21875 0
0.375 0.21875 0
0.40625 0.21875 0
0.375 0.25 0
0.40625 0.25 0
0.40625 0.21875 0
0.4375 0.21875 0
0.40625 0.25 0
0.4375 0.25 0
0.4375 0.1875 0
0.46875 0.1875 0
0.4375 0.21875 0
0.46875 0.21875 0
0.46875 0.1875 0
0.5 0.1875 0
0.46875 0.21875 0
0.5 0.21875 0
0.4375 0.21875 0
0.46875 0.21875 0
0.4375 0.25 0
0.46875 0.25 0
0.46875 0.21875 0
0.5 0.21875 0
0.46875 0.25 0
0.5 0.25 0
0 0.25 0
0.03125 0.25 0
0 0.28125 0
0.03125 0.28125 0
0.03125 0.25 0
0.0625 0.25 0
0.03125 0.28125 0
0.0625 0.28125 0
0 0.28125 0
0.03125 0.28125 0
0 0.3125 0
0.03125 0.3125 0
0.03125 0.28125 0
0.0625 0.28125 0
0.03125 0.3125 0
0.0625 0.3125 0
0.0625 0.25 0
0.09375 0.25 0
0.0625 0.28125 0
0.09375 0.28125 0
0.09375 0.25 0
0.125 0.25 0
0.09375 0.28125 0
0.125 0.28125 0
0.0625 0.28125 0
0.09375 0.28125 0
0.0625 0.3125 0
0.09375 0.3125 0
0.09375 0.28125 0
0.125 0.28125 0
0.09375 0.3125 0
0.125 0.3125 0
0 0.3125 0
0.03125 0.3125 0
0 0.34375 0
0.03125 0.34375 0
0.03125 0.3125 0
0.0625 0.3125 0
0.03125 0.34375 0
0.0625 0.34375 0
0 0.34375 0
0.03125 0.34375 0
0 0.375 0
0.03125 0.375 0
0.03125 0.34375 0
0.0625 0.34375 0
0.03125 0.375 0
0.0625 0.375 0
0.0625 0.3125 0
0.09375 0.3125 0
0.0625 0.34375 0
0.09375 0.34375 0
0.09375 0.3125 0
0.125 0.3125 0
0.09375 0.34375 0
0.125 0.34375 0
0.0625 0.34375 0
0.09375 0.34375 0
0.0625 0.375 0
0.09375 0.375 0
0.09375 0.34375 0
0.125 0.34375 0
0.09375 0.375 0
0.125 0.375 0
0.125 0.25 0
0.15625 0.25 0
0.125 0.28125 0
0.15625 0.28125 0
0.15625 0.25 0
0.1875 0.25 0
0.15625 0.28125 0
0.1875 0.28125 0
0.125 0.28125 0
0.15625 0.28125 0
0.125 0.3125 0
0.15625 0.3125 0
0.15625 0.28125 0
0.1875 0.28125 0
0.15625 0.3125 0
0.1875 0.3125 0
0.1875 0.25 0
0.21875 0.25 0
0.1875 0.28125 0
0.21875 0.28125 0
0.21875 0.25 0
0.25 0.25 0
0.21875 0.28125 0
0.25 0.28125 0
0.1875 0.28125 0
0.21875 0.28125 0
0.1875 0.3125 0
0.21875 0.3125 0
0.21875 0.28125 0
0.25 0.28125 0
0.21875 0.3125 0
0.25 0.3125 0
0.125 0.3125 0
0.15625 0.3125 0
0.125 0.34375 0
0.15625 0.34375 0
0.15625 0.3125 0
0.1875 0.3125 0
0.15625 0.34375 0
0.1875 0.34375 0
0.125 0.34375 0
[...]
POINT_DATA 4096
SCALARS p double 1
LOOKUP_TABLE default
-1.88401e-07 0.000129048 -0.000129666 5.82463e-09 0.000129048 0.000320364 5.82463e-09 8.1314e-05 -0.000129666 5.82463e-09 -0.000323687 -8.05121e-05 5.82463e-09 8.1314e-05 -8.05121e-05 3.04338e-06 0.000320364 0.000353076 8.1314e-05 6.56581e-05 0.000353076 0.000176489 6.56581e-05 -9.38993e-05 8.1314e-05 6.56581e-05 3.04338e-06 -2.89342e-05 6.56581e-05 -9.38993e-05 -2.89342e-05 -0.00021591 -0.000323687 -8.05121e-05 -0.000363928 -6.35958e-05 -8.05121e-05 3.04338e-06 -6.35958e-05 4.27814e-05 -0.000363928 -6.35958e-05 -0.000197916 0.000100388 -6.35958e-05 4.27814e-05 0.000100388 0.000243631 3.04338e-06 -2.89342e-05 4.27814e-05 1.35388e-05 -2.89342e-05 -0.00021591 1.35388e-05 -0.000173137 4.27814e-05 1.35388e-05 0.000243631 0.000218434 1.35388e-05 -0.000173137 0.000218434 3.1348e-05 0.000176489 -0.00020759 -9.38993e-05 -0.000405309 -0.00020759 -0.000784689 -0.000405309 -0.000866119 -9.38993e-05 -0.000405309 -0.00021591 -0.0005615 -0.000405309 -0.000866119 -0.0005615 -0.00106594 -0.000784689 -0.00154108 -0.000866119 -0.0014692 -0.00154108 -0.00246425 -0.0014692 -0.00220592 -0.000866119 -0.0014692 -0.00106594 -0.00172371 -0.0014692 -0.00220592 -0.00172371 -0.00252668 -0.00021591 -0.0005615 -0.000173137 -0.000515125 -0.0005615 -0.00106594 -0.000515125 -0.0010116 -0.000173137 -0.000515125 3.1348e-05 -0.00031646 -0.000515125 -0.0010116 -0.00031646 -0.000821585 -0.00106594 -0.00172371 -0.0010116 -0.00165773 -0.00172371 -0.00252668 -0.00165773 -0.00244617 -0.0010116 -0.00165773 -0.000821585 -0.00147884 -0.00165773 -0.00244617 -0.00147884 -0.00228079 -0.000197916 0.000100388 0.000179236 0.000425271 0.000100388 0.000243631 0.000425271 0.000616008 0.000179236 0.000425271 0.000764275 0.000917807 0.000425271 0.000616008 0.000917807 0.00117035 0.000243631 0.000218434 0.000616008 0.00059049 0.000218434 3.1348e-05 0.00059049 0.00040334 0.000616008 0.00059049 0.00117035 0.00113888 0.00059049 0.00040334 0.00113888 0.000949368 0.000764275 0.000917807 0.00155913 0.00158369 0.000917807 0.00117035 0.00158369 0.00191526 0.00155913 0.00158369 0.00257155 0.00243092 0.00158369 0.00191526 0.00243092 0.00286092 0.00117035 0.00113888 0.00191526 0.00187257 0.00113888 0.000949368 0.00187257 0.00167807 0.00191526 0.00187257 0.00286092 0.00280215 0.00187257 0.00167807 0.00280215 0.00259992 3.1348e-05 -0.00031646 0.00040334 4.79493e-05 -0.00031646 -0.000821585 4.79493e-05 -0.000469382 0.00040334 4.79493e-05 0.000949368 0.000581718 4.79493e-05 -0.000469382 0.000581718 4.54636e-05 -0.000821585 -0.00147884 -0.000469382 -0.00114315 -0.00147884 -0.00228079 -0.00114315 -0.00196547 -0.000469382 -0.00114315 4.54636e-05 -0.000653756 -0.00114315 -0.00196547 -0.000653756 -0.0015075 0.000949368 0.000581718 0.00167807 0.00129309 0.000581718 4.54636e-05 0.00129309 0.000731038 0.00167807 0.00129309 0.00259992 0.00219204 0.00129309 0.000731038 0.00219204 0.00159669 4.54636e-05 -0.000653756 0.000731038 -2.50857e-06 -0.000653756 -0.0015075 -2.50857e-06 -0.000898458 0.000731038 -2.50857e-06 0.00159669 0.000819264 -2.50857e-06 -0.000898458 0.000819264 -0.000130378 -0.00246425 -0.00354161 -0.00220592 -0.00306653 -0.00354161 -0.0047595 -0.00306653 -0.00404014 -0.00220592 -0.00306653 -0.00252668 -0.00346476 -0.00306653 -0.00404014 -0.00346476 -0.0045263 -0.0047595 -0.00610284 -0.00404014 -0.00511469 -0.00610284 -0.00755512 -0.00511469 -0.00627691 -0.00404014 -0.00511469 -0.0045263 -0.00569822 -0.00511469 -0.00627691 -0.00569822 -0.00696605 -0.00252668 -0.00346476 -0.00244617 -0.00336744 -0.00346476 -0.0045263 -0.00336744 -0.00441034 -0.00244617 -0.00336744 -0.00228079 -0.00321797 -0.00336744 -0.00441034 -0.00321797 -0.00427914 -0.0045263 -0.00569822 -0.00441034 -0.00556216 -0.00569822 -0.00696605 -0.00556216 -0.00680875 -0.00441034 -0.00556216 -0.00427914 -0.00545147 -0.00556216 -0.00680875 -0.00545147 -0.00672067 -0.00755512 -0.00909846 -0.00627691 -0.00751243 -0.00909846 -0.0107137 -0.00751243 -0.00880589 -0.00627691 -0.00751243 -0.00696605 -0.00831412 -0.00751243 -0.00880589 -0.00831412 -0.00972567 -0.0107137 -0.0123808 -0.00880589 -0.0101411 -0.0123808 -0.0140787 -0.0101411 -0.0115011 -0.00880589 -0.0101411 -0.00972567 -0.011183 -0.0101411 -0.0115011 -0.011183 -0.0126675 -0.00696605 -0.00831412 -0.00680875 -0.00813477 -0.00831412 -0.00972567 -0.00813477 -0.00952372 -0.00680875 -0.00813477 -0.00672067 -0.0080712 -0.00813477 -0.00952372 -0.0080712 -0.00948634 -0.00972567 -0.011183 -0.00952372 -0.0109582 -0.011183 -0.0126675 -0.0109582 -0.01242 -0.00952372 -0.0109582 -0.00948634 -0.0109484 -0.0109582 -0.01242 -0.0109484 -0.0124389 -0.00228079 -0.00321797 -0.00196547 -0.0029267 -0.00321797 -0.00427914 -0.0029267 -0.00401538 -0.00196547 -0.0029267 -0.0015075 -0.00250571 -0.0029267 -0.00401538 -0.00250571 -0.00363649 -0.00427914 -0.00545147 -0.00401538 -0.00521842 -0.00545147 -0.00672067 -0.00521842 -0.00652129 -0.00401538 -0.00521842 -0.00363649 -0.00488635 -0.00521842 -0.00652129 -0.00488635 -0.00624027 -0.0015075 -0.00250571 -0.000898458 -0.00194618 -0.00250571 -0.00363649 -0.00194618 -0.00313321 -0.000898458 -0.00194618 -0.000130378 -0.00124091 -0.00194618 -0.00313321 -0.00124091 -0.00249912 -0.00363649 -0.00488635 -0.00313321 -0.00444544 -0.00488635 -0.00624027 -0.00444544 -0.00586724 -0.00313321 -0.00444544 -0.00249912 -0.00389014 -0.00444544 -0.00586724 -0.00389014 -0.0053975 -0.00672067 -0.0080712 -0.00652129 -0.00790812 -0.0080712 -0.00948634 -0.00790812 -0.00936186 -0.00652129 -0.00790812 -0.00624027 -0.00768192 -0.00790812 -0.00936186 -0.00768192 -0.00919369 -0.00948634 -0.0109484 -0.00936186 -0.0108645 -0.0109484 -0.0124389 -0.0108645 -0.012397 -0.00936186 -0.0108645 -0.00919369 -0.010757 -0.0108645 -0.012397 -0.010757 -0.0123522 -0.00624027 -0.00768192 -0.00586724 -0.0073816 -0.00768192 -0.00919369 -0.0073816 -0.00897023 -0.00586724 -0.0073816 -0.0053975 -0.00700338 -0.0073816 -0.00897023 -0.00700338 -0.00868863 -0.00919369 -0.010757 -0.00897023 -0.0106138 -0.010757 -0.0123522 -0.0106138 -0.0122919 -0.00897023 -0.0106138 -0.00868863 -0.010433 -0.0106138 -0.0122919 -0.010433 -0.0122152 0.00257155 0.00243092 0.00381393 0.00347032 0.00243092 0.00286092 0.00347032 0.00402001 0.00381393 0.00347032 0.00530259 0.00471575 0.00347032 0.00402001 0.00471575 0.00540824 0.00286092 0.00280215 0.00402001 0.00394044 0.00280215 0.00259992 0.00394044 0.00372772 0.00402001 0.00394044 0.00540824 0.00530308 0.00394044 0.00372772 0.00530308 0.005077 0.00530259 0.00471575 0.0070576 0.00618419 0.00471575 0.00540824 0.00618419 0.00704471 0.0070576 0.00618419 0.00910296 0.00789605 0.00618419 0.00704471 0.00789605 0.00895234 0.00540824 0.00530308 0.00704471 0.00690889 0.00530308 0.005077 0.00690889 0.00666639 0.00704471 0.00690889 0.00895234 0.00878039 0.00690889 0.00666639 0.00878039 0.00851799 0.00259992 0.00219204 0.00372772 0.00329102 0.00219204 0.00159669 0.00329102 0.00265436 0.00372772 0.00329102 0.005077 0.0046051 0.00329102 0.00265436 0.0046051 0.00391842 0.00159669 0.000819264 0.00265436 0.00182284 0.000819264 -0.000130378 0.00182284 0.000807307 0.00265436 0.00182284 0.00391842 0.0030218 0.00182284 0.000807307 0.0030218 0.00192727 0.005077 0.0046051 0.00666639 0.0061523 0.0046051 0.00391842 0.0061523 0.00540607 0.00666639 0.0061523 0.00851799 0.00795393 0.0061523 0.00540607 0.00795393 0.00713755 0.00391842 0.0030218 0.00540607 0.00443232 0.0030218 0.00192727 0.00443232 0.00324457 0.00540607 0.00443232 0.00713755 0.00607336 0.00443232 0.00324457 0.00607336 0.00477676 0.00910296 0.00789605 0.0114672 0.0098756 0.00789605 0.00895234 0.0098756 0.0111584 0.0114672 0.0098756 0.0141838 0.0121517 0.0098756 0.0111584 0.0121517 0.0136954 0.00895234 0.00878039 0.0111584 0.0109443 0.00878039 0.00851799 0.0109443 0.010658 0.0111584 0.0109443 0.0136954 0.0134323 0.0109443 0.010658 0.0134323 0.0131173 0.0141838 0.0121517 0.0172926 0.0147584 0.0121517 0.0136954 0.0147584 0.0166017 0.0172926 0.0147584 0.0208404 0.0177368 0.0147584 0.0166017 0.0177368 0.0199237 0.0136954 0.0134323 0.0166017 0.0162821 0.0134323 0.0131173 0.0162821 0.0159325 0.0166017 0.0162821 0.0199237 0.0195386 0.0162821 0.0159325 0.0195386 0.0191466 0.00851799 0.00795393 0.010658 0.0100351 0.00795393 0.00713755 0.0100351 0.0091365 0.010658 0.0100351 0.0131173 0.0124252 0.0100351 0.0091365 0.0124252 0.0114304 0.00713755 0.00607336 0.0091365 0.00796692 0.00607336 0.00477676 0.00796692 0.00654404 0.0091365 0.00796692 0.0114304 0.0101383 0.00796692 0.00654404 0.0101383 0.00856946 0.0131173 0.0124252 0.0159325 0.0151585 0.0124252 0.0114304 0.0151585 0.0140511 0.0159325 0.0151585 0.0191466 0.0182755 0.0151585 0.0140511 0.0182755 0.0170355 0.0114304 0.0101383 0.0140511 0.0126165 0.0101383 0.00856946 0.0126165 0.0108791 0.0140511 0.0126165 0.0170355 0.0154345 0.0126165 0.0108791 0.0154345 0.0135021 -0.000130378 -0.00124091 0.000807307 -0.000380078 -0.00124091 -0.00249912 -0.000380078 -0.00172518 0.000807307 -0.000380078 0.00192727 0.000648027 -0.000380078 -0.00172518 0.000648027 -0.000800645 -0.00249912 -0.00389014 -0.00172518 -0.00321215 -0.00389014 -0.0053975 -0.00321215 -0.00482356 -0.00172518 -0.00321215 -0.000800645 -0.00240175 -0.00321215 -0.00482356 -0.00240175 -0.00413669 0.00192727 0.000648027 0.00324457 0.0018573 0.000648027 -0.000800645 0.0018573 0.00028716 0.00324457 0.0018573 0.00477676 0.00326381 0.0018573 0.00028716 0.00326381 0.00155288 -0.000800645 -0.00240175 0.00028716 -0.00144744 -0.00240175 -0.00413669 -0.00144744 -0.00332657 0.00028716 -0.00144744 0.00155288 -0.000336005 -0.00144744 -0.00332657 -0.000336005 -0.00238133 -0.0053975 -0.00700338 -0.00482356 -0.00654057 -0.00700338 -0.00868863 -0.00654057 -0.00834305 -0.00482356 -0.00654057 -0.00413669 -0.00598547 -0.00654057 -0.00834305 -0.00598547 -0.00792684 -0.00868863 -0.010433 -0.00834305 -0.0102097 -0.010433 -0.0122152 -0.0102097 -0.0121182 -0.00834305 -0.0102097 -0.00792684 -0.00993832 -0.0102097 -0.0121182 -0.00993832 -0.0119963 -0.00413669 -0.00598547 -0.00332657 -0.00532894 -0.00598547 -0.00792684 -0.00532894 -0.00743198 -0.00332657 -0.00532894 -0.00238133 -0.00456034 -0.00532894 -0.00743198 -0.00456034 -0.0068491 -0.00792684 -0.00993832 -0.00743198 -0.009612 -0.00993832 -0.0119963 -0.009612 -0.0118442 -0.00743198 -0.009612 -0.0068491 -0.00922265 -0.009612 -0.0118442 -0.00922265 -0.0116548 0.00477676 0.00326381 0.00654404 0.00488597 0.00326381 0.00155288 0.00488597 0.00301314 0.00654404 0.00488597 0.00856946 0.00674458 0.00488597 0.00301314 0.00674458 0.00468664 0.00155288 -0.000336005 0.00301314 0.00094756 -0.000336005 -0.00238133 0.00094756 -0.00128749 0.00301314 0.00094756 0.00468664 0.00241999 0.00094756 -0.00128749 0.00241999 -3.00016e-05 0.00856946 0.00674458 0.0108791 0.00886284 0.00674458 0.00468664 0.00886284 0.00659397 0.0108791 0.00886284 0.0135021 0.0112663 0.00886284 0.00659397 0.0112663 0.00875749 0.00468664 0.00241999 0.00659397 0.00409961 0.00241999 -3.00016e-05 0.00409961 0.00140751 0.00659397 0.00409961 0.00875749 0.00600607 0.00409961 0.00140751 0.00600607 0.00304254 -0.00238133 -0.00456034 -0.00128749 -0.0036676 -0.00456034 -0.0068491 -0.0036676 -0.00616745 -0.00128749 -0.0036676 -3.00016e-05 -0.00263719 -0.0036676 -0.00616745 -0.00263719 -0.00537479 -0.0068491 -0.00922265 -0.00616745 -0.00876075 -0.00922265 -0.0116548 -0.00876075 -0.0114202 -0.00616745 -0.00876075 -0.00537479 -0.00821531 -0.00876075 -0.0114202 -0.00821531 -0.0111303 -3.00016e-05 -0.00263719 0.00140751 -0.00145429 -0.00263719 -0.00537479 -0.00145429 -0.00445757 0.00140751 -0.00145429 0.00304254 -0.000103007 -0.00145429 -0.00445757 -0.000103007 -0.00340102 -0.00537479 -0.00821531 -0.00445757 -0.00757379 -0.00821531 -0.0111303 -0.00757379 -0.0107738 -0.00445757 -0.00757379 -0.00340102 -0.00682222 -0.00757379 -0.0107738 -0.00682222 -0.0103372 -0.0140787 -0.0157856 -0.0115011 -0.0128685 -0.0157856 -0.0174795 -0.0128685 -0.0142254 -0.0115011 -0.0128685 -0.0126675 -0.0141602 -0.0128685 -0.0142254 -0.0141602 -0.0156415 -0.0174795 -0.019138 -0.0142254 -0.0155538 -0.019138 -0.0207389 -0.0155538 -0.0168359 -0.0142254 -0.0155538 -0.0156415 -0.0170918 -0.0155538 -0.0168359 -0.0170918 -0.0184914 -0.0126675 -0.0141602 -0.01242 -0.0138903 -0.0141602 -0.0156415 -0.0138903 -0.0153498 -0.01242 -0.0138903 -0.0124389 -0.0139386 -0.0138903 -0.0153498 -0.0139386 -0.015428 -0.0156415 -0.0170918 -0.0153498 -0.0167791 -0.0170918 -0.0184914 -0.0167791 -0.0181588 -0.0153498 -0.0167791 -0.015428 -0.0168871 -0.0167791 -0.0181588 -0.0168871 -0.0182962 -0.0207389 -0.0222602 -0.0168359 -0.0180539 -0.0222602 -0.0236807 -0.0180539 -0.0191907 -0.0168359 -0.0180539 -0.0184914 -0.019821 -0.0180539 -0.0191907 -0.019821 -0.0210619 -0.0236807 -0.0249799 -0.0191907 -0.0202301 -0.0249799 -0.0261388 -0.0202301 -0.0211565 -0.0191907 -0.0202301 -0.0210619 -0.0221962 -0.0202301 -0.0211565 -0.0221962 -0.0232072 -0.0184914 -0.019821 -0.0181588 -0.0194698 -0.019821 -0.0210619 -0.0194698 -0.0206936 -0.0181588 -0.0194698 -0.0182962 -0.0196357 -0.0194698 -0.0206936 -0.0196357 -0.0208865 -0.0210619 -0.0221962 -0.0206936 -0.0218124 -0.0221962 -0.0232072 -0.0218124 -0.0228096 -0.0206936 -0.0218124 -0.0208865 -0.0220305 -0.0218124 -0.0228096 -0.0220305 -0.0230506 -0.0124389 -0.0139386 -0.012397 -0.0139398 -0.0139386 -0.015428 -0.0139398 -0.0154728 -0.012397 -0.0139398 -0.0123522 -0.0139592 -0.0139398 -0.0154728 -0.0139592 -0.015557 -0.015428 -0.0168871 -0.0154728 -0.0169755 -0.0168871 -0.0182962 -0.0169755 -0.0184276 -0.0154728 -0.0169755 -0.015557 -0.0171244 -0.0169755 -0.0184276 -0.0171244 -0.0186401 -0.0123522 -0.0139592 -0.0122919 -0.0139835 -0.0139592 -0.015557 -0.0139835 -0.0156668 -0.0122919 -0.0139835 -0.0122152 -0.0140132 -0.0139835 -0.0156668 -0.0140132 -0.0158039 -0.015557 -0.0171244 -0.0156668 -0.0173196 -0.0171244 -0.0186401 -0.0173196 -0.0189194 -0.0156668 -0.0173196 -0.0158039 -0.0175639 -0.0173196 -0.0189194 -0.0175639 -0.0192695 -0.0182962 -0.0196357 -0.0184276 -0.0198088 -0.0196357 -0.0208865 -0.0198088 -0.0210994 -0.0184276 -0.0198088 -0.0186401 -0.020083 -0.0198088 -0.0210994 -0.020083 -0.0214323 -0.0208865 -0.0220305 -0.0210994 -0.0222803 -0.0220305 -0.0230506 -0.0222803 -0.023334 -0.0210994 -0.0222803 -0.0214323 -0.0226679 -0.0222803 -0.023334 -0.0226679 -0.0237712 -0.0186401 -0.020083 -0.0189194 -0.0204437 -0.020083 -0.0214323 -0.0204437 -0.0218707 -0.0189194 -0.0204437 -0.0192695 -0.0208968 -0.0204437 -0.0218707 -0.0208968 -0.0224219 -0.0214323 -0.0226679 -0.0218707 -0.0231788 -0.0226679 -0.0237712 -0.0231788 -0.0243479 -0.0218707 -0.0231788 -0.0224219 -0.0238218 -0.0231788 -0.0243479 -0.0238218 -0.0250745 -0.0261388 -0.0271397 -0.0211565 -0.0219558 -0.0271397 -0.0279654 -0.0219558 -0.0226159 -0.0211565 -0.0219558 -0.0232072 -0.0240794 -0.0219558 -0.0226159 -0.0240794 -0.0248001 -0.0279654 -0.0286031 -0.0226159 -0.0231205 -0.0286031 -0.0290223 -0.0231205 -0.023487 -0.0226159 -0.0231205 -0.0248001 -0.025354 -0.0231205 -0.023487 -0.025354 -0.0257544 -0.0232072 -0.0240794 -0.0228096 -0.0236702 -0.0240794 -0.0248001 -0.0236702 -0.0243818 -0.0228096 -0.0236702 -0.0230506 -0.0239313 -0.0236702 -0.0243818 -0.0239313 -0.0246598 -0.0248001 -0.025354 -0.0243818 -0.0249295 -0.025354 -0.0257544 -0.0249295 -0.0253283 -0.0243818 -0.0249295 -0.0246598 -0.025221 -0.0249295 -0.0253283 -0.025221 -0.025629 -0.0290223 -0.0292771 -0.023487 -0.0235769 -0.0292771 -0.0292635 -0.0235769 -0.024096 -0.023487 -0.0235769 -0.0257544 -0.0258831 -0.0235769 -0.024096 -0.0258831 -0.0263876 -0.0292635 -0.0276624 -0.024096 -0.0216201 -0.0276624 -0.030213 -0.0216201 -0.0273972 -0.024096 -0.0216201 -0.0263876 -0.0239368 -0.0216201 -0.0273972 -0.0239368 -0.0286134 -0.0257544 -0.0258831 -0.0253283 -0.0254531 -0.0258831 -0.0263876 -0.0254531 -0.0259777 -0.0253283 -0.0254531 -0.025629 -0.0257579 -0.0254531 -0.0259777 -0.0257579 -0.0262753 -0.0263876 -0.0239368 -0.0259777 -0.0234693 -0.0239368 -0.0286134 -0.0234693 -0.028575 -0.0259777 -0.0234693 -0.0262753 -0.0237376 -0.0234693 -0.028575 -0.0237376 -0.0287049 -0.0230506 -0.0239313 -0.023334 -0.0242441 -0.0239313 -0.0246598 -0.0242441 -0.0249972 -0.023334 -0.0242441 -0.0237712 -0.0247247 -0.0242441 -0.0249972 -0.0247247 -0.025514 -0.0246598 -0.025221 -0.0249972 -0.0255773 -0.025221 -0.025629 -0.0255773 -0.0259979 -0.0249972 -0.0255773 -0.025514 -0.0261219 -0.0255773 -0.0259979 -0.0261219 -0.0265614 -0.0237712 -0.0247247 -0.0243479 -0.0253591 -0.0247247 -0.025514 -0.0253591 -0.0261965 -0.0243479 -0.0253591 -0.0250745 -0.0261591 -0.0253591 -0.0261965 -0.0261591 -0.0270582 -0.025514 -0.0261219 -0.0261965 -0.0268417 -0.0261219 -0.0265614 -0.0268417 -0.027307 -0.0261965 -0.0268417 -0.0270582 -0.0277513 -0.0268417 -0.027307 -0.0277513 -0.0282505 -0.025629 -0.0257579 -0.0259979 -0.0261296 -0.0257579 -0.0262753 -0.0261296 -0.0266493 -0.0259979 -0.0261296 -0.0265614 -0.0266994 -0.0261296 -0.0266493 -0.0266994 -0.0272268 -0.0262753 -0.0237376 -0.0266493 -0.0240583 -0.0237376 -0.0287049 -0.0240583 -0.0291086 -0.0266493 -0.0240583 -0.0272268 -0.0245726 -0.0240583 -0.0291086 -0.0245726 -0.0297126 -0.0265614 -0.0266994 -0.027307 -0.0274552 -0.0266994 -0.0272268 -0.0274552 -0.0279964 -0.027307 -0.0274552 -0.0282505 -0.0284129 -0.0274552 -0.0279964 -0.0284129 -0.0289737 -0.0272268 -0.0245726 -0.0279964 -0.0252608 -0.0245726 -0.0297126 -0.0252608 -0.0305337 -0.0279964 -0.0252608 -0.0289737 -0.0261367 -0.0252608 -0.0305337 -0.0261367 -0.0315781 -0.0122152 -0.0140132 -0.0121182 -0.0140451 -0.0140132 -0.0158039 -0.0140451 -0.0159664 -0.0121182 -0.0140451 -0.0119963 -0.0140763 -0.0140451 -0.0159664 -0.0140763 -0.0161526 -0.0158039 -0.0175639 -0.0159664 -0.0178571 -0.0175639 -0.0192695 -0.0178571 -0.0196917 -0.0159664 -0.0178571 -0.0161526 -0.0181988 -0.0178571 -0.0196917 -0.0181988 -0.0201875 -0.0119963 -0.0140763 -0.0118442 -0.0141025 -0.0140763 -0.0161526 -0.0141025 -0.0163599 -0.0118442 -0.0141025 -0.0116548 -0.0141183 -0.0141025 -0.0163599 -0.0141183 -0.0165846 -0.0161526 -0.0181988 -0.0163599 -0.0185882 -0.0181988 -0.0201875 -0.0185882 -0.020758 -0.0163599 -0.0185882 -0.0165846 -0.0190235 -0.0185882 -0.020758 -0.0190235 -0.0214038 -0.0192695 -0.0208968 -0.0196917 -0.0214447 -0.0208968 -0.0224219 -0.0214447 -0.0230902 -0.0196917 -0.0214447 -0.0201875 -0.0220911 -0.0214447 -0.0230902 -0.0220911 -0.0238813 -0.0224219 -0.0238218 -0.0230902 -0.0246031 -0.0238218 -0.0250745 -0.0246031 -0.0259588 -0.0230902 -0.0246031 -0.0238813 -0.0255304 -0.0246031 -0.0259588 -0.0255304 -0.0270111 -0.0201875 -0.0220911 -0.020758 -0.0228393 -0.0220911 -0.0238813 -0.0228393 -0.0248012 -0.020758 -0.0228393 -0.0214038 -0.0236926 -0.0228393 -0.0248012 -0.0236926 -0.025856 -0.0238813 -0.0255304 -0.0248012 -0.0266126 -0.0255304 -0.0270111 -0.0266126 -0.0282429 -0.0248012 -0.0266126 -0.025856 -0.0278591 -0.0266126 -0.0282429 -0.0278591 -0.0296672 -0.0116548 -0.0141183 -0.0114202 -0.0141171 -0.0141183 -0.0165846 -0.0141171 -0.0168216 -0.0114202 -0.0141171 -0.0111303 -0.0140903 -0.0141171 -0.0168216 -0.0140903 -0.017064 -0.0165846 -0.0190235 -0.0168216 -0.0195018 -0.0190235 -0.0214038 -0.0195018 -0.0221243 -0.0168216 -0.0195018 -0.017064 -0.0200182 -0.0195018 -0.0221243 -0.0200182 -0.0229172 -0.0111303 -0.0140903 -0.0107738 -0.0140274 -0.0140903 -0.017064 -0.0140274 -0.0173026 -0.0107738 -0.0140274 -0.0103372 -0.0139156 -0.0140274 -0.0173026 -0.0139156 -0.0175255 -0.017064 -0.0200182 -0.0173026 -0.0205652 -0.0200182 -0.0229172 -0.0205652 -0.0237777 -0.0173026 -0.0205652 -0.0175255 -0.0211323 -0.0205652 -0.0237777 -0.0211323 -0.0246974 -0.0214038 -0.0236926 -0.0221243 -0.0246534 -0.0236926 -0.025856 -0.0246534 -0.0270516 -0.0221243 -0.0246534 -0.0229172 -0.0257226 -0.0246534 -0.0270516 -0.0257226 -0.0283931 -0.025856 -0.0278591 -0.0270516 -0.0292798 -0.0278591 -0.0296672 -0.0292798 -0.0312983 -0.0270516 -0.0292798 -0.0283931 -0.0308846 -0.0292798 -0.0312983 -0.0308846 -0.0331512 -0.0229172 -0.0257226 -0.0237777 -0.0268989 -0.0257226 -0.0283931 -0.0268989 -0.0298836 -0.0237777 -0.0268989 -0.0246974 -0.0281774 -0.0268989 -0.0298836 -0.0281774 -0.0315231 -0.0283931 -0.0308846 -0.0298836 -0.0326