# vtk DataFile Version 3.0
#This file was generated by the deal.II library on 2026/1/5 at 14:19:38
ASCII
DATASET UNSTRUCTURED_GRID

POINTS 4096 double
0 0 0
0.03125 0 0
0 0.03125 0
0.03125 0.03125 0
0.03125 0 0
0.0625 0 0
0.03125 0.03125 0
0.0625 0.03125 0
0 0.03125 0
0.03125 0.03125 0
0 0.0625 0
0.03125 0.0625 0
0.03125 0.03125 0
0.0625 0.03125 0
0.03125 0.0625 0
0.0625 0.0625 0
0.0625 0 0
0.09375 0 0
0.0625 0.03125 0
0.09375 0.03125 0
0.09375 0 0
0.125 0 0
0.09375 0.03125 0
0.125 0.03125 0
0.0625 0.03125 0
0.09375 0.03125 0
0.0625 0.0625 0
0.09375 0.0625 0
0.09375 0.03125 0
0.125 0.03125 0
0.09375 0.0625 0
0.125 0.0625 0
0 0.0625 0
0.03125 0.0625 0
0 0.09375 0
0.03125 0.09375 0
0.03125 0.0625 0
0.0625 0.0625 0
0.03125 0.09375 0
0.0625 0.09375 0
0 0.09375 0
0.03125 0.09375 0
0 0.125 0
0.03125 0.125 0
0.03125 0.09375 0
0.0625 0.09375 0
0.03125 0.125 0
0.0625 0.125 0
0.0625 0.0625 0
0.09375 0.0625 0
0.0625 0.09375 0
0.09375 0.09375 0
0.09375 0.0625 0
0.125 0.0625 0
0.09375 0.09375 0
0.125 0.09375 0
0.0625 0.09375 0
0.09375 0.09375 0
0.0625 0.125 0
0.09375 0.125 0
0.09375 0.09375 0
0.125 0.09375 0
0.09375 0.125 0
0.125 0.125 0
0.125 0 0
0.15625 0 0
0.125 0.03125 0
0.15625 0.03125 0
0.15625 0 0
0.1875 0 0
0.15625 0.03125 0
0.1875 0.03125 0
0.125 0.03125 0
0.15625 0.03125 0
0.125 0.0625 0
0.15625 0.0625 0
0.15625 0.03125 0
0.1875 0.03125 0
0.15625 0.0625 0
0.1875 0.0625 0
0.1875 0 0
0.21875 0 0
0.1875 0.03125 0
0.21875 0.03125 0
0.21875 0 0
0.25 0 0
0.21875 0.03125 0
0.25 0.03125 0
0.1875 0.03125 0
0.21875 0.03125 0
0.1875 0.0625 0
0.21875 0.0625 0
0.21875 0.03125 0
0.25 0.03125 0
0.21875 0.0625 0
0.25 0.0625 0
0.125 0.0625 0
0.15625 0.0625 0
0.125 0.09375 0
0.15625 0.09375 0
0.15625 0.0625 0
0.1875 0.0625 0
0.15625 0.09375 0
0.1875 0.09375 0
0.125 0.09375 0
0.15625 0.09375 0
0.125 0.125 0
0.15625 0.125 0
0.15625 0.09375 0
0.1875 0.09375 0
0.15625 0.125 0
0.1875 0.125 0
0.1875 0.0625 0
0.21875 0.0625 0
0.1875 0.09375 0
0.21875 0.09375 0
0.21875 0.0625 0
0.25 0.0625 0
0.21875 0.09375 0
0.25 0.09375 0
0.1875 0.09375 0
0.21875 0.09375 0
0.1875 0.125 0
0.21875 0.125 0
0.21875 0.09375 0
0.25 0.09375 0
0.21875 0.125 0
0.25 0.125 0
0 0.125 0
0.03125 0.125 0
0 0.15625 0
0.03125 0.15625 0
0.03125 0.125 0
0.0625 0.125 0
0.03125 0.15625 0
0.0625 0.15625 0
0 0.15625 0
0.03125 0.15625 0
0 0.1875 0
0.03125 0.1875 0
0.03125 0.15625 0
0.0625 0.15625 0
0.03125 0.1875 0
0.0625 0.1875 0
0.0625 0.125 0
0.09375 0.125 0
0.0625 0.15625 0
0.09375 0.15625 0
0.09375 0.125 0
0.125 0.125 0
0.09375 0.15625 0
0.125 0.15625 0
0.0625 0.15625 0
0.09375 0.15625 0
0.0625 0.1875 0
0.09375 0.1875 0
0.09375 0.15625 0
0.125 0.15625 0
0.09375 0.1875 0
0.125 0.1875 0
0 0.1875 0
0.03125 0.1875 0
0 0.21875 0
0.03125 0.21875 0
0.03125 0.1875 0
0.0625 0.1875 0
0.03125 0.21875 0
0.0625 0.21875 0
0 0.21875 0
0.03125 0.21875 0
0 0.25 0
0.03125 0.25 0
0.03125 0.21875 0
0.0625 0.21875 0
0.03125 0.25 0
0.0625 0.25 0
0.0625 0.1875 0
0.09375 0.1875 0
0.0625 0.21875 0
0.09375 0.21875 0
0.09375 0.1875 0
0.125 0.1875 0
0.09375 0.21875 0
0.125 0.21875 0
0.0625 0.21875 0
0.09375 0.21875 0
0.0625 0.25 0
0.09375 0.25 0
0.09375 0.21875 0
0.125 0.21875 0
0.09375 0.25 0
0.125 0.25 0
0.125 0.125 0
0.15625 0.125 0
0.125 0.15625 0
0.15625 0.15625 0
0.15625 0.125 0
0.1875 0.125 0
0.15625 0.15625 0
0.1875 0.15625 0
0.125 0.15625 0
0.15625 0.15625 0
0.125 0.1875 0
0.15625 0.1875 0
0.15625 0.15625 0
0.1875 0.15625 0
0.15625 0.1875 0
0.1875 0.1875 0
0.1875 0.125 0
0.21875 0.125 0
0.1875 0.15625 0
0.21875 0.15625 0
0.21875 0.125 0
0.25 0.125 0
0.21875 0.15625 0
0.25 0.15625 0
0.1875 0.15625 0
0.21875 0.15625 0
0.1875 0.1875 0
0.21875 0.1875 0
0.21875 0.15625 0
0.25 0.15625 0
0.21875 0.1875 0
0.25 0.1875 0
0.125 0.1875 0
0.15625 0.1875 0
0.125 0.21875 0
0.15625 0.21875 0
0.15625 0.1875 0
0.1875 0.1875 0
0.15625 0.21875 0
0.1875 0.21875 0
0.125 0.21875 0
0.15625 0.21875 0
0.125 0.25 0
0.15625 0.25 0
0.15625 0.21875 0
0.1875 0.21875 0
0.15625 0.25 0
0.1875 0.25 0
0.1875 0.1875 0
0.21875 0.1875 0
0.1875 0.21875 0
0.21875 0.21875 0
0.21875 0.1875 0
0.25 0.1875 0
0.21875 0.21875 0
0.25 0.21875 0
0.1875 0.21875 0
0.21875 0.21875 0
0.1875 0.25 0
0.21875 0.25 0
0.21875 0.21875 0
0.25 0.21875 0
0.21875 0.25 0
0.25 0.25 0
0.25 0 0
0.28125 0 0
0.25 0.03125 0
0.28125 0.03125 0
0.28125 0 0
0.3125 0 0
0.28125 0.03125 0
0.3125 0.03125 0
0.25 0.03125 0
0.28125 0.03125 0
0.25 0.0625 0
0.28125 0.0625 0
0.28125 0.03125 0
0.3125 0.03125 0
0.28125 0.0625 0
0.3125 0.0625 0
0.3125 0 0
0.34375 0 0
0.3125 0.03125 0
0.34375 0.03125 0
0.34375 0 0
0.375 0 0
0.34375 0.03125 0
0.375 0.03125 0
0.3125 0.03125 0
0.34375 0.03125 0
0.3125 0.0625 0
0.34375 0.0625 0
0.34375 0.03125 0
0.375 0.03125 0
0.34375 0.0625 0
0.375 0.0625 0
0.25 0.0625 0
0.28125 0.0625 0
0.25 0.09375 0
0.28125 0.09375 0
0.28125 0.0625 0
0.3125 0.0625 0
0.28125 0.09375 0
0.3125 0.09375 0
0.25 0.09375 0
0.28125 0.09375 0
0.25 0.125 0
0.28125 0.125 0
0.28125 0.09375 0
0.3125 0.09375 0
0.28125 0.125 0
0.3125 0.125 0
0.3125 0.0625 0
0.34375 0.0625 0
0.3125 0.09375 0
0.34375 0.09375 0
0.34375 0.0625 0
0.375 0.0625 0
0.34375 0.09375 0
0.375 0.09375 0
0.3125 0.09375 0
0.34375 0.09375 0
0.3125 0.125 0
0.34375 0.125 0
0.34375 0.09375 0
0.375 0.09375 0
0.34375 0.125 0
0.375 0.125 0
0.375 0 0
0.40625 0 0
0.375 0.03125 0
0.40625 0.03125 0
0.40625 0 0
0.4375 0 0
0.40625 0.03125 0
0.4375 0.03125 0
0.375 0.03125 0
0.40625 0.03125 0
0.375 0.0625 0
0.40625 0.0625 0
0.40625 0.03125 0
0.4375 0.03125 0
0.40625 0.0625 0
0.4375 0.0625 0
0.4375 0 0
0.46875 0 0
0.4375 0.03125 0
0.46875 0.03125 0
0.46875 0 0
0.5 0 0
0.46875 0.03125 0
0.5 0.03125 0
0.4375 0.03125 0
0.46875 0.03125 0
0.4375 0.0625 0
0.46875 0.0625 0
0.46875 0.03125 0
0.5 0.03125 0
0.46875 0.0625 0
0.5 0.0625 0
0.375 0.0625 0
0.40625 0.0625 0
0.375 0.09375 0
0.40625 0.09375 0
0.40625 0.0625 0
0.4375 0.0625 0
0.40625 0.09375 0
0.4375 0.09375 0
0.375 0.09375 0
0.40625 0.09375 0
0.375 0.125 0
0.40625 0.125 0
0.40625 0.09375 0
0.4375 0.09375 0
0.40625 0.125 0
0.4375 0.125 0
0.4375 0.0625 0
0.46875 0.0625 0
0.4375 0.09375 0
0.46875 0.09375 0
0.46875 0.0625 0
0.5 0.0625 0
0.46875 0.09375 0
0.5 0.09375 0
0.4375 0.09375 0
0.46875 0.09375 0
0.4375 0.125 0
0.46875 0.125 0
0.46875 0.09375 0
0.5 0.09375 0
0.46875 0.125 0
0.5 0.125 0
0.25 0.125 0
0.28125 0.125 0
0.25 0.15625 0
0.28125 0.15625 0
0.28125 0.125 0
0.3125 0.125 0
0.28125 0.15625 0
0.3125 0.15625 0
0.25 0.15625 0
0.28125 0.15625 0
0.25 0.1875 0
0.28125 0.1875 0
0.28125 0.15625 0
0.3125 0.15625 0
0.28125 0.1875 0
0.3125 0.1875 0
0.3125 0.125 0
0.34375 0.125 0
0.3125 0.15625 0
0.34375 0.15625 0
0.34375 0.125 0
0.375 0.125 0
0.34375 0.15625 0
0.375 0.15625 0
0.3125 0.15625 0
0.34375 0.15625 0
0.3125 0.1875 0
0.34375 0.1875 0
0.34375 0.15625 0
0.375 0.15625 0
0.34375 0.1875 0
0.375 0.1875 0
0.25 0.1875 0
0.28125 0.1875 0
0.25 0.21875 0
0.28125 0.21875 0
0.28125 0.1875 0
0.3125 0.1875 0
0.28125 0.21875 0
0.3125 0.21875 0
0.25 0.21875 0
0.28125 0.21875 0
0.25 0.25 0
0.28125 0.25 0
0.28125 0.21875 0
0.3125 0.21875 0
0.28125 0.25 0
0.3125 0.25 0
0.3125 0.1875 0
0.34375 0.1875 0
0.3125 0.21875 0
0.34375 0.21875 0
0.34375 0.1875 0
0.375 0.1875 0
0.34375 0.21875 0
0.375 0.21875 0
0.3125 0.21875 0
0.34375 0.21875 0
0.3125 0.25 0
0.34375 0.25 0
0.34375 0.21875 0
0.375 0.21875 0
0.34375 0.25 0
0.375 0.25 0
0.375 0.125 0
0.40625 0.125 0
0.375 0.15625 0
0.40625 0.15625 0
0.40625 0.125 0
0.4375 0.125 0
0.40625 0.15625 0
0.4375 0.15625 0
0.375 0.15625 0
0.40625 0.15625 0
0.375 0.1875 0
0.40625 0.1875 0
0.40625 0.15625 0
0.4375 0.15625 0
0.40625 0.1875 0
0.4375 0.1875 0
0.4375 0.125 0
0.46875 0.125 0
0.4375 0.15625 0
0.46875 0.15625 0
0.46875 0.125 0
0.5 0.125 0
0.46875 0.15625 0
0.5 0.15625 0
0.4375 0.15625 0
0.46875 0.15625 0
0.4375 0.1875 0
0.46875 0.1875 0
0.46875 0.15625 0
0.5 0.15625 0
0.46875 0.1875 0
0.5 0.1875 0
0.375 0.1875 0
0.40625 0.1875 0
0.375 0.21875 0
0.40625 0.21875 0
0.40625 0.1875 0
0.4375 0.1875 0
0.40625 0.21875 0
0.4375 0.21875 0
0.375 0.21875 0
0.40625 0.21875 0
0.375 0.25 0
0.40625 0.25 0
0.40625 0.21875 0
0.4375 0.21875 0
0.40625 0.25 0
0.4375 0.25 0
0.4375 0.1875 0
0.46875 0.1875 0
0.4375 0.21875 0
0.46875 0.21875 0
0.46875 0.1875 0
0.5 0.1875 0
0.46875 0.21875 0
0.5 0.21875 0
0.4375 0.21875 0
0.46875 0.21875 0
0.4375 0.25 0
0.46875 0.25 0
0.46875 0.21875 0
0.5 0.21875 0
0.46875 0.25 0
0.5 0.25 0
0 0.25 0
0.03125 0.25 0
0 0.28125 0
0.03125 0.28125 0
0.03125 0.25 0
0.0625 0.25 0
0.03125 0.28125 0
0.0625 0.28125 0
0 0.28125 0
0.03125 0.28125 0
0 0.3125 0
0.03125 0.3125 0
0.03125 0.28125 0
0.0625 0.28125 0
0.03125 0.3125 0
0.0625 0.3125 0
0.0625 0.25 0
0.09375 0.25 0
0.0625 0.28125 0
0.09375 0.28125 0
0.09375 0.25 0
0.125 0.25 0
0.09375 0.28125 0
0.125 0.28125 0
0.0625 0.28125 0
0.09375 0.28125 0
0.0625 0.3125 0
0.09375 0.3125 0
0.09375 0.28125 0
0.125 0.28125 0
0.09375 0.3125 0
0.125 0.3125 0
0 0.3125 0
0.03125 0.3125 0
0 0.34375 0
0.03125 0.34375 0
0.03125 0.3125 0
0.0625 0.3125 0
0.03125 0.34375 0
0.0625 0.34375 0
0 0.34375 0
0.03125 0.34375 0
0 0.375 0
0.03125 0.375 0
0.03125 0.34375 0
0.0625 0.34375 0
0.03125 0.375 0
0.0625 0.375 0
0.0625 0.3125 0
0.09375 0.3125 0
0.0625 0.34375 0
0.09375 0.34375 0
0.09375 0.3125 0
0.125 0.3125 0
0.09375 0.34375 0
0.125 0.34375 0
0.0625 0.34375 0
0.09375 0.34375 0
0.0625 0.375 0
0.09375 0.375 0
0.09375 0.34375 0
0.125 0.34375 0
0.09375 0.375 0
0.125 0.375 0
0.125 0.25 0
0.15625 0.25 0
0.125 0.28125 0
0.15625 0.28125 0
0.15625 0.25 0
0.1875 0.25 0
0.15625 0.28125 0
0.1875 0.28125 0
0.125 0.28125 0
0.15625 0.28125 0
0.125 0.3125 0
0.15625 0.3125 0
0.15625 0.28125 0
0.1875 0.28125 0
0.15625 0.3125 0
0.1875 0.3125 0
0.1875 0.25 0
0.21875 0.25 0
0.1875 0.28125 0
0.21875 0.28125 0
0.21875 0.25 0
0.25 0.25 0
0.21875 0.28125 0
0.25 0.28125 0
0.1875 0.28125 0
0.21875 0.28125 0
0.1875 0.3125 0
0.21875 0.3125 0
0.21875 0.28125 0
0.25 0.28125 0
0.21875 0.3125 0
0.25 0.3125 0
0.125 0.3125 0
0.15625 0.3125 0
0.125 0.34375 0
0.15625 0.34375 0
0.15625 0.3125 0
0.1875 0.3125 0
0.15625 0.34375 0
0.1875 0.34375 0
0.125 0.34375 0
[...]
POINT_DATA 4096
SCALARS p double 1
LOOKUP_TABLE default
1.85734e-05 0.000103436 -5.7002e-05 3.26156e-05 0.000103436 0.000349479 3.26156e-05 0.000167524 -5.7002e-05 3.26156e-05 -0.000303702 -0.000102682 3.26156e-05 0.000167524 -0.000102682 3.33473e-05 0.000349479 0.000624445 0.000167524 0.00032234 0.000624445 0.000831373 0.00032234 0.000433621 0.000167524 0.00032234 3.33473e-05 0.000178521 0.00032234 0.000433621 0.000178521 0.000267649 -0.000303702 -0.000102682 -0.000586933 -0.000255644 -0.000102682 3.33473e-05 -0.000255644 -0.000103215 -0.000586933 -0.000255644 -0.00081193 -0.000366706 -0.000255644 -0.000103215 -0.000366706 -0.000180116 3.33473e-05 0.000178521 -0.000103215 4.64631e-05 0.000178521 0.000267649 4.64631e-05 0.000122814 -0.000103215 4.64631e-05 -0.000180116 -5.93809e-06 4.64631e-05 0.000122814 -5.93809e-06 7.6253e-05 0.000831373 0.00092265 0.000433621 0.000470547 0.00092265 0.000879893 0.000470547 0.000416386 0.000433621 0.000470547 0.000267649 0.000282448 0.000470547 0.000416386 0.000282448 0.000207647 0.000879893 0.000699175 0.000416386 0.000264764 0.000699175 0.000384093 0.000264764 1.53185e-05 0.000416386 0.000264764 0.000207647 3.65803e-05 0.000264764 1.53185e-05 3.65803e-05 -0.000232412 0.000267649 0.000282448 0.000122814 0.000124929 0.000282448 0.000207647 0.000124929 4.28982e-05 0.000122814 0.000124929 7.6253e-05 7.79987e-05 0.000124929 4.28982e-05 7.79987e-05 -5.86323e-06 0.000207647 3.65803e-05 4.28982e-05 -0.000127297 3.65803e-05 -0.000232412 -0.000127297 -0.000386959 4.28982e-05 -0.000127297 -5.86323e-06 -0.000176313 -0.000127297 -0.000386959 -0.000176313 -0.000433446 -0.00081193 -0.000366706 -0.000928376 -0.000400957 -0.000366706 -0.000180116 -0.000400957 -0.00017378 -0.000928376 -0.000400957 -0.0009101 -0.000334672 -0.000400957 -0.00017378 -0.000334672 -6.02919e-05 -0.000180116 -5.93809e-06 -0.00017378 2.87946e-05 -5.93809e-06 7.6253e-05 2.87946e-05 0.000124535 -0.00017378 2.87946e-05 -6.02919e-05 0.000170024 2.87946e-05 0.000124535 0.000170024 0.000283218 -0.0009101 -0.000334672 -0.000741996 -0.000152157 -0.000334672 -6.02919e-05 -0.000152157 0.000177776 -0.000741996 -0.000152157 -0.000413951 0.000158378 -0.000152157 0.000177776 0.000158378 0.000554892 -6.02919e-05 0.000170024 0.000177776 0.000433028 0.000170024 0.000283218 0.000433028 0.000565128 0.000177776 0.000433028 0.000554892 0.000832 0.000433028 0.000565128 0.000832 0.000983536 7.6253e-05 7.79987e-05 0.000124535 0.000132463 7.79987e-05 -5.86323e-06 0.000132463 5.13456e-05 0.000124535 0.000132463 0.000283218 0.000300778 0.000132463 5.13456e-05 0.000300778 0.000224646 -5.86323e-06 -0.000176313 5.13456e-05 -0.000117075 -0.000176313 -0.000433446 -0.000117075 -0.00037157 5.13456e-05 -0.000117075 0.000224646 5.86277e-05 -0.000117075 -0.00037157 5.86277e-05 -0.000194871 0.000283218 0.000300778 0.000565128 0.000593558 0.000300778 0.000224646 0.000593558 0.000523102 0.000565128 0.000593558 0.000983536 0.00102289 0.000593558 0.000523102 0.00102289 0.000957732 0.000224646 5.86277e-05 0.000523102 0.000358957 5.86277e-05 -0.000194871 0.000358957 0.000104469 0.000523102 0.000358957 0.000957732 0.000794171 0.000358957 0.000104469 0.000794171 0.00053622 0.000384093 -5.81281e-05 1.53185e-05 -0.000328839 -5.81281e-05 -0.000618565 -0.000328839 -0.000762543 1.53185e-05 -0.000328839 -0.000232412 -0.000597513 -0.000328839 -0.000762543 -0.000597513 -0.00105462 -0.000618565 -0.00128742 -0.000762543 -0.00127923 -0.00128742 -0.00205416 -0.00127923 -0.0018713 -0.000762543 -0.00127923 -0.00105462 -0.00159786 -0.00127923 -0.0018713 -0.00159786 -0.00221991 -0.000232412 -0.000597513 -0.000386959 -0.000734947 -0.000597513 -0.00105462 -0.000734947 -0.00116822 -0.000386959 -0.000734947 -0.000433446 -0.000775967 -0.000734947 -0.00116822 -0.000775967 -0.0012013 -0.00105462 -0.00159786 -0.00116822 -0.00168215 -0.00159786 -0.00221991 -0.00168215 -0.00227053 -0.00116822 -0.00168215 -0.0012013 -0.00170552 -0.00168215 -0.00227053 -0.00170552 -0.00228321 -0.00205416 -0.00290733 -0.0018713 -0.00253001 -0.00290733 -0.00383421 -0.00253001 -0.00324538 -0.0018713 -0.00253001 -0.00221991 -0.00291199 -0.00253001 -0.00324538 -0.00291199 -0.00366375 -0.00383421 -0.00482038 -0.00324538 -0.00400609 -0.00482038 -0.00584941 -0.00400609 -0.00479913 -0.00324538 -0.00400609 -0.00366375 -0.00446329 -0.00400609 -0.00479913 -0.00446329 -0.00529688 -0.00221991 -0.00291199 -0.00227053 -0.00292562 -0.00291199 -0.00366375 -0.00292562 -0.00363802 -0.00227053 -0.00292562 -0.00228321 -0.00292739 -0.00292562 -0.00363802 -0.00292739 -0.00362936 -0.00366375 -0.00446329 -0.00363802 -0.00439671 -0.00446329 -0.00529688 -0.00439671 -0.0051888 -0.00363802 -0.00439671 -0.00362936 -0.00437868 -0.00439671 -0.0051888 -0.00437868 -0.00516286 -0.000433446 -0.000775967 -0.00037157 -0.000710412 -0.000775967 -0.0012013 -0.000710412 -0.00113123 -0.00037157 -0.000710412 -0.000194871 -0.000533683 -0.000710412 -0.00113123 -0.000533683 -0.000955489 -0.0012013 -0.00170552 -0.00113123 -0.00163059 -0.00170552 -0.00228321 -0.00163059 -0.00220376 -0.00113123 -0.00163059 -0.000955489 -0.00145725 -0.00163059 -0.00220376 -0.00145725 -0.00203486 -0.000194871 -0.000533683 0.000104469 -0.000237863 -0.000533683 -0.000955489 -0.000237863 -0.000665803 0.000104469 -0.000237863 0.00053622 0.000186617 -0.000237863 -0.000665803 0.000186617 -0.000252535 -0.000955489 -0.00145725 -0.000665803 -0.0011767 -0.00145725 -0.00203486 -0.0011767 -0.00176703 -0.000665803 -0.0011767 -0.000252535 -0.000779059 -0.0011767 -0.00176703 -0.000779059 -0.00139008 -0.00228321 -0.00292739 -0.00220376 -0.00284453 -0.00292739 -0.00362936 -0.00284453 -0.00354485 -0.00220376 -0.00284453 -0.00203486 -0.0026828 -0.00284453 -0.00354485 -0.0026828 -0.00339364 -0.00362936 -0.00437868 -0.00354485 -0.00429485 -0.00437868 -0.00516286 -0.00429485 -0.00508239 -0.00354485 -0.00429485 -0.00339364 -0.00415795 -0.00429485 -0.00508239 -0.00415795 -0.00496386 -0.00203486 -0.0026828 -0.00176703 -0.0024319 -0.0026828 -0.00339364 -0.0024319 -0.00316458 -0.00176703 -0.0024319 -0.00139008 -0.00208141 -0.0024319 -0.00316458 -0.00208141 -0.002847 -0.00339364 -0.00415795 -0.00316458 -0.00395605 -0.00415795 -0.00496386 -0.00395605 -0.00479465 -0.00316458 -0.00395605 -0.002847 -0.00367835 -0.00395605 -0.00479465 -0.00367835 -0.00456405 -0.000413951 0.000158378 8.27425e-05 0.000607102 0.000158378 0.000554892 0.000607102 0.00108403 8.27425e-05 0.000607102 0.000757412 0.00120417 0.000607102 0.00108403 0.00120417 0.00177814 0.000554892 0.000832 0.00108403 0.00138037 0.000832 0.000983536 0.00138037 0.00155182 0.00108403 0.00138037 0.00177814 0.00209192 0.00138037 0.00155182 0.00209192 0.00228406 0.000757412 0.00120417 0.0016212 0.00196087 0.00120417 0.00177814 0.00196087 0.0026512 0.0016212 0.00196087 0.00268788 0.00289029 0.00196087 0.0026512 0.00289029 0.00371905 0.00177814 0.00209192 0.0026512 0.00298143 0.00209192 0.00228406 0.00298143 0.00319563 0.0026512 0.00298143 0.00371905 0.0040655 0.00298143 0.00319563 0.0040655 0.00430379 0.000983536 0.00102289 0.00155182 0.00160167 0.00102289 0.000957732 0.00160167 0.00154091 0.00155182 0.00160167 0.00228406 0.00234393 0.00160167 0.00154091 0.00234393 0.00228657 0.000957732 0.000794171 0.00154091 0.00137624 0.000794171 0.00053622 0.00137624 0.00111225 0.00154091 0.00137624 0.00228657 0.00211911 0.00137624 0.00111225 0.00211911 0.00184672 0.00228406 0.00234393 0.00319563 0.00326535 0.00234393 0.00228657 0.00326535 0.0032106 0.00319563 0.00326535 0.00430379 0.00438359 0.00326535 0.0032106 0.00438359 0.00433108 0.00228657 0.00211911 0.0032106 0.00303897 0.00211911 0.00184672 0.00303897 0.00275633 0.0032106 0.00303897 0.00433108 0.00415447 0.00303897 0.00275633 0.00415447 0.00386049 0.00268788 0.00289029 0.00397444 0.00400803 0.00289029 0.00371905 0.00400803 0.0050002 0.00397444 0.00400803 0.00550138 0.00533272 0.00400803 0.0050002 0.00533272 0.00651644 0.00371905 0.0040655 0.0050002 0.00536326 0.0040655 0.00430379 0.00536326 0.00562825 0.0050002 0.00536326 0.00651644 0.00689704 0.00536326 0.00562825 0.00689704 0.00719183 0.00550138 0.00533272 0.00729333 0.00688665 0.00533272 0.00651644 0.00688665 0.00829376 0.00729333 0.00688665 0.00937996 0.00869679 0.00688665 0.00829376 0.00869679 0.0103635 0.00651644 0.00689704 0.00829376 0.0086931 0.00689704 0.00719183 0.0086931 0.00902104 0.00829376 0.0086931 0.0103635 0.0107828 0.0086931 0.00902104 0.0107828 0.011147 0.00430379 0.00438359 0.00562825 0.00571877 0.00438359 0.00433108 0.00571877 0.00566859 0.00562825 0.00571877 0.00719183 0.00729397 0.00571877 0.00566859 0.00729397 0.00724654 0.00433108 0.00415447 0.00566859 0.00548686 0.00415447 0.00386049 0.00548686 0.00518143 0.00566859 0.00548686 0.00724654 0.0070601 0.00548686 0.00518143 0.0070601 0.0067441 0.00719183 0.00729397 0.00902104 0.00913561 0.00729397 0.00724654 0.00913561 0.00909135 0.00902104 0.00913561 0.011147 0.0112741 0.00913561 0.00909135 0.0112741 0.0112328 0.00724654 0.0070601 0.00909135 0.00890093 0.0070601 0.0067441 0.00890093 0.00857597 0.00909135 0.00890093 0.0112328 0.0110388 0.00890093 0.00857597 0.0110388 0.0107066 0.00053622 0.000186617 0.00111225 0.000751767 0.000186617 -0.000252535 0.000751767 0.000296658 0.00111225 0.000751767 0.00184672 0.00147223 0.000751767 0.000296658 0.00147223 0.000997124 -0.000252535 -0.000779059 0.000296658 -0.000251453 -0.000779059 -0.00139008 -0.000251453 -0.000890469 0.000296658 -0.000251453 0.000997124 0.000422325 -0.000251453 -0.000890469 0.000422325 -0.000251048 0.00184672 0.00147223 0.00275633 0.00236547 0.00147223 0.000997124 0.00236547 0.0018674 0.00275633 0.00236547 0.00386049 0.00345199 0.00236547 0.0018674 0.00345199 0.00292934 0.000997124 0.000422325 0.0018674 0.00126211 0.000422325 -0.000251048 0.00126211 0.000549519 0.0018674 0.00126211 0.00292934 0.0022915 0.00126211 0.000549519 0.0022915 0.00153689 -0.00139008 -0.00208141 -0.000890469 -0.00161711 -0.00208141 -0.002847 -0.00161711 -0.0024261 -0.000890469 -0.00161711 -0.000251048 -0.00102076 -0.00161711 -0.0024261 -0.00102076 -0.00188264 -0.002847 -0.00367835 -0.0024261 -0.00330958 -0.00367835 -0.00456405 -0.00330958 -0.00425655 -0.0024261 -0.00330958 -0.00188264 -0.00282972 -0.00330958 -0.00425655 -0.00282972 -0.00385167 -0.000251048 -0.00102076 0.000549519 -0.000269465 -0.00102076 -0.00188264 -0.000269465 -0.00119213 0.000549519 -0.000269465 0.00153689 0.00066471 -0.000269465 -0.00119213 0.00066471 -0.000324268 -0.00188264 -0.00282972 -0.00119213 -0.00221286 -0.00282972 -0.00385167 -0.00221286 -0.0033224 -0.00119213 -0.00221286 -0.000324268 -0.00142636 -0.00221286 -0.0033224 -0.00142636 -0.00263409 0.00386049 0.00345199 0.00518143 0.00475531 0.00345199 0.00292934 0.00475531 0.00420828 0.00518143 0.00475531 0.0067441 0.00630183 0.00475531 0.00420828 0.00630183 0.00573256 0.00292934 0.0022915 0.00420828 0.00353804 0.0022915 0.00153689 0.00353804 0.00274125 0.00420828 0.00353804 0.00573256 0.0050326 0.00353804 0.00274125 0.0050326 0.00419666 0.0067441 0.00630183 0.00857597 0.0081204 0.00630183 0.00573256 0.0081204 0.00753301 0.00857597 0.0081204 0.0107066 0.0102413 0.0081204 0.00753301 0.0102413 0.00964162 0.00573256 0.0050326 0.00753301 0.00680881 0.0050326 0.00419666 0.00680881 0.00594037 0.00753301 0.00680881 0.00964162 0.00890123 0.00680881 0.00594037 0.00890123 0.00801063 0.00153689 0.00066471 0.00274125 0.00181495 0.00066471 -0.000324268 0.00181495 0.00075745 0.00274125 0.00181495 0.00419666 0.00321919 0.00181495 0.00075745 0.00321919 0.00209539 -0.000324268 -0.00142636 0.00075745 -0.000430299 -0.00142636 -0.00263409 -0.000430299 -0.00174348 0.00075745 -0.000430299 0.00209539 0.00082264 -0.000430299 -0.00174348 0.00082264 -0.000598052 0.00419666 0.00321919 0.00594037 0.00491921 0.00321919 0.00209539 0.00491921 0.00373688 0.00594037 0.00491921 0.00801063 0.00695829 0.00491921 0.00373688 0.00695829 0.00573174 0.00209539 0.00082264 0.00373688 0.00238634 0.00082264 -0.000598052 0.00238634 0.000863514 0.00373688 0.00238634 0.00573174 0.00431884 0.00238634 0.000863514 0.00431884 0.00270918 -0.00584941 -0.00690273 -0.00479913 -0.00560996 -0.00690273 -0.00795962 -0.00560996 -0.00642237 -0.00479913 -0.00560996 -0.00529688 -0.00614916 -0.00560996 -0.00642237 -0.00614916 -0.00700288 -0.00795962 -0.00899737 -0.00642237 -0.0072188 -0.00899737 -0.00999155 -0.0072188 -0.00798056 -0.00642237 -0.0072188 -0.00700288 -0.00783957 -0.0072188 -0.00798056 -0.00783957 -0.00863961 -0.00529688 -0.00614916 -0.0051888 -0.00599967 -0.00614916 -0.00700288 -0.00599967 -0.00681289 -0.0051888 -0.00599967 -0.00516286 -0.00596756 -0.00599967 -0.00681289 -0.00596756 -0.00677648 -0.00700288 -0.00783957 -0.00681289 -0.00761073 -0.00783957 -0.00863961 -0.00761073 -0.00837444 -0.00681289 -0.00761073 -0.00677648 -0.00757192 -0.00761073 -0.00837444 -0.00757192 -0.00833496 -0.00999155 -0.0109167 -0.00798056 -0.00868852 -0.0109167 -0.011747 -0.00868852 -0.0093237 -0.00798056 -0.00868852 -0.00863961 -0.00938316 -0.00868852 -0.0093237 -0.00938316 -0.0100507 -0.011747 -0.0124579 -0.0093237 -0.00986834 -0.0124579 -0.0130271 -0.00986834 -0.0103071 -0.0093237 -0.00986834 -0.0100507 -0.0106244 -0.00986834 -0.0103071 -0.0106244 -0.011089 -0.00863961 -0.00938316 -0.00837444 -0.00908503 -0.00938316 -0.0100507 -0.00908503 -0.00972395 -0.00837444 -0.00908503 -0.00833496 -0.00904633 -0.00908503 -0.00972395 -0.00904633 -0.00968712 -0.0100507 -0.0106244 -0.00972395 -0.0102742 -0.0106244 -0.011089 -0.0102742 -0.0107217 -0.00972395 -0.0102742 -0.00968712 -0.01024 -0.0102742 -0.0107217 -0.01024 -0.0106904 -0.00516286 -0.00596756 -0.00508239 -0.00589327 -0.00596756 -0.00677648 -0.00589327 -0.00671116 -0.00508239 -0.00589327 -0.00496386 -0.0057972 -0.00589327 -0.00671116 -0.0057972 -0.00664128 -0.00677648 -0.00757192 -0.00671116 -0.00751804 -0.00757192 -0.00833496 -0.00751804 -0.00829438 -0.00671116 -0.00751804 -0.00664128 -0.00747733 -0.00751804 -0.00829438 -0.00747733 -0.00828473 -0.00496386 -0.0057972 -0.00479465 -0.00566607 -0.0057972 -0.00664128 -0.00566607 -0.00655307 -0.00479465 -0.00566607 -0.00456405 -0.00548953 -0.00566607 -0.00655307 -0.00548953 -0.00643692 -0.00664128 -0.00747733 -0.00655307 -0.00743583 -0.00747733 -0.00828473 -0.00743583 -0.00829212 -0.00655307 -0.00743583 -0.00643692 -0.00738497 -0.00743583 -0.00829212 -0.00738497 -0.00830936 -0.00833496 -0.00904633 -0.00829438 -0.00902005 -0.00904633 -0.00968712 -0.00902005 -0.00967512 -0.00829438 -0.00902005 -0.00828473 -0.00904187 -0.00902005 -0.00967512 -0.00904187 -0.00972704 -0.00968712 -0.01024 -0.00967512 -0.0102411 -0.01024 -0.0106904 -0.0102411 -0.0107024 -0.00967512 -0.0102411 -0.00972704 -0.0103198 -0.0102411 -0.0107024 -0.0103198 -0.0108025 -0.00828473 -0.00904187 -0.00829212 -0.00909819 -0.00904187 -0.00972704 -0.00909819 -0.00982982 -0.00829212 -0.00909819 -0.00830936 -0.00918359 -0.00909819 -0.00982982 -0.00918359 -0.00998013 -0.00972704 -0.0103198 -0.00982982 -0.0104639 -0.0103198 -0.0108025 -0.0104639 -0.0109799 -0.00982982 -0.0104639 -0.00998013 -0.0106722 -0.0104639 -0.0109799 -0.0106722 -0.0112355 -0.0130271 -0.0134365 -0.0103071 -0.0106282 -0.0134365 -0.0136742 -0.0106282 -0.010826 -0.0103071 -0.0106282 -0.011089 -0.0114337 -0.0106282 -0.010826 -0.0114337 -0.0116537 -0.0136742 -0.0137392 -0.010826 -0.0108997 -0.0137392 -0.0136363 -0.0108997 -0.0108714 -0.010826 -0.0108997 -0.0116537 -0.0117502 -0.0108997 -0.0108714 -0.0117502 -0.011743 -0.011089 -0.0114337 -0.0107217 -0.0110564 -0.0114337 -0.0116537 -0.0110564 -0.0112741 -0.0107217 -0.0110564 -0.0106904 -0.0110279 -0.0110564 -0.0112741 -0.0110279 -0.0112474 -0.0116537 -0.0117502 -0.0112741 -0.0113752 -0.0117502 -0.011743 -0.0113752 -0.0113779 -0.0112741 -0.0113752 -0.0112474 -0.0113484 -0.0113752 -0.0113779 -0.0113484 -0.0113465 -0.0136363 -0.013426 -0.0108714 -0.0107091 -0.013426 -0.0131226 -0.0107091 -0.010751 -0.0108714 -0.0107091 -0.011743 -0.0116072 -0.0107091 -0.010751 -0.0116072 -0.0116434 -0.0131226 -0.0122416 -0.010751 -0.0095545 -0.0122416 -0.0133352 -0.0095545 -0.0120757 -0.010751 -0.0095545 -0.0116434 -0.0104575 -0.0095545 -0.0120757 -0.0104575 -0.0124291 -0.011743 -0.0116072 -0.0113779 -0.0112496 -0.0116072 -0.0116434 -0.0112496 -0.0112873 -0.0113779 -0.0112496 -0.0113465 -0.0112065 -0.0112496 -0.0112873 -0.0112065 -0.0112107 -0.0116434 -0.0104575 -0.0112873 -0.0100696 -0.0104575 -0.0124291 -0.0100696 -0.0121173 -0.0112873 -0.0100696 -0.0112107 -0.00996219 -0.0100696 -0.0121173 -0.00996219 -0.0118287 -0.0106904 -0.0110279 -0.0107024 -0.011047 -0.0110279 -0.0112474 -0.011047 -0.0112691 -0.0107024 -0.011047 -0.0108025 -0.0111616 -0.011047 -0.0112691 -0.0111616 -0.0113893 -0.0112474 -0.0113484 -0.0112691 -0.0113664 -0.0113484 -0.0113465 -0.0113664 -0.0113527 -0.0112691 -0.0113664 -0.0113893 -0.0114822 -0.0113664 -0.0113527 -0.0114822 -0.011453 -0.0108025 -0.0111616 -0.0109799 -0.0113619 -0.0111616 -0.0113893 -0.0113619 -0.0116 -0.0109799 -0.0113619 -0.0112355 -0.0116509 -0.0113619 -0.0116 -0.0116509 -0.0119063 -0.0113893 -0.0114822 -0.0116 -0.0116898 -0.0114822 -0.011453 -0.0116898 -0.0116435 -0.0116 -0.0116898 -0.0119063 -0.0119957 -0.0116898 -0.0116435 -0.0119957 -0.011932 -0.0113465 -0.0112065 -0.0113527 -0.0111906 -0.0112065 -0.0112107 -0.0111906 -0.0111571 -0.0113527 -0.0111906 -0.011453 -0.0112637 -0.0111906 -0.0111571 -0.0112637 -0.01119 -0.0112107 -0.00996219 -0.0111571 -0.00986601 -0.00996219 -0.0118287 -0.00986601 -0.0116523 -0.0111571 -0.00986601 -0.01119 -0.00985293 -0.00986601 -0.0116523 -0.00985293 -0.0115722 -0.011453 -0.0112637 -0.0116435 -0.0114237 -0.0112637 -0.01119 -0.0114237 -0.0113095 -0.0116435 -0.0114237 -0.011932 -0.0116789 -0.0114237 -0.0113095 -0.0116789 -0.0115225 -0.01119 -0.00985293 -0.0113095 -0.00991853 -0.00985293 -0.0115722 -0.00991853 -0.0115961 -0.0113095 -0.00991853 -0.0115225 -0.0100671 -0.00991853 -0.0115961 -0.0100671 -0.0117195 -0.00456405 -0.00548953 -0.00425655 -0.0052523 -0.00548953 -0.00643692 -0.0052523 -0.00627817 -0.00425655 -0.0052523 -0.00385167 -0.00493386 -0.0052523 -0.00627817 -0.00493386 -0.00605694 -0.00643692 -0.00738497 -0.00627817 -0.00731128 -0.00738497 -0.00830936 -0.00731128 -0.00832483 -0.00627817 -0.00731128 -0.00605694 -0.00719633 -0.00731128 -0.00832483 -0.00719633 -0.00832241 -0.00385167 -0.00493386 -0.0033224 -0.00450668 -0.00493386 -0.00605694 -0.00450668 -0.00574599 -0.0033224 -0.00450668 -0.00263409 -0.00393464 -0.00450668 -0.00574599 -0.00393464 -0.00530868 -0.00605694 -0.00719633 -0.00574599 -0.00701423 -0.00719633 -0.00832241 -0.00701423 -0.00827874 -0.00574599 -0.00701423 -0.00530868 -0.00672911 -0.00701423 -0.00827874 -0.00672911 -0.00816039 -0.00830936 -0.00918359 -0.00832483 -0.00928892 -0.00918359 -0.00998013 -0.00928892 -0.0101717 -0.00832483 -0.00928892 -0.00832241 -0.0094011 -0.00928892 -0.0101717 -0.0094011 -0.0103952 -0.00998013 -0.0106722 -0.0101717 -0.0109415 -0.0106722 -0.0112355 -0.0109415 -0.0115693 -0.0101717 -0.0109415 -0.0103952 -0.011267 -0.0109415 -0.0115693 -0.011267 -0.0119809 -0.00832241 -0.0094011 -0.00827874 -0.00950065 -0.0094011 -0.0103952 -0.00950065 -0.0106363 -0.00827874 -0.00950065 -0.00816039 -0.00955844 -0.00950065 -0.0106363 -0.00955844 -0.010872 -0.0103952 -0.011267 -0.0106363 -0.0116401 -0.011267 -0.0119809 -0.0116401 -0.012468 -0.0106363 -0.0116401 -0.010872 -0.0120455 -0.0116401 -0.012468 -0.0120455 -0.0130236 -0.00263409 -0.00393464 -0.00174348 -0.00317162 -0.00393464 -0.00530868 -0.00317162 -0.00469693 -0.00174348 -0.00317162 -0.000598052 -0.00216001 -0.00317162 -0.00469693 -0.00216001 -0.00384871 -0.00530868 -0.00672911 -0.00469693 -0.00629238 -0.00672911 -0.00816039 -0.00629238 -0.00792026 -0.00469693 -0.00629238 -0.00384871 -0.00563906 -0.00629238 -0.00792026 -0.00563906 -0.00749288 -0.000598052 -0.00216001 0.000863514 -0.000830529 -0.00216001 -0.00384871 -0.000830529 -0.00268689 0.000863514 -0.000830529 0.00270918 0.000896267 -0.000830529 -0.00268689 0.000896267 -0.00111954 -0.00384871 -0.00563906 -0.00268689 -0.00468523 -0.00563906 -0.00749288 -0.00468523 -0.00678995 -0.00268689 -0.00468523 -0.00111954 -0.00332654 -0.00468523 -0.006789