# vtk DataFile Version 3.0
#This file was generated by the deal.II library on 2026/1/5 at 14:19:28
ASCII
DATASET UNSTRUCTURED_GRID

POINTS 4096 double
0 0 0
0.03125 0 0
0 0.03125 0
0.03125 0.03125 0
0.03125 0 0
0.0625 0 0
0.03125 0.03125 0
0.0625 0.03125 0
0 0.03125 0
0.03125 0.03125 0
0 0.0625 0
0.03125 0.0625 0
0.03125 0.03125 0
0.0625 0.03125 0
0.03125 0.0625 0
0.0625 0.0625 0
0.0625 0 0
0.09375 0 0
0.0625 0.03125 0
0.09375 0.03125 0
0.09375 0 0
0.125 0 0
0.09375 0.03125 0
0.125 0.03125 0
0.0625 0.03125 0
0.09375 0.03125 0
0.0625 0.0625 0
0.09375 0.0625 0
0.09375 0.03125 0
0.125 0.03125 0
0.09375 0.0625 0
0.125 0.0625 0
0 0.0625 0
0.03125 0.0625 0
0 0.09375 0
0.03125 0.09375 0
0.03125 0.0625 0
0.0625 0.0625 0
0.03125 0.09375 0
0.0625 0.09375 0
0 0.09375 0
0.03125 0.09375 0
0 0.125 0
0.03125 0.125 0
0.03125 0.09375 0
0.0625 0.09375 0
0.03125 0.125 0
0.0625 0.125 0
0.0625 0.0625 0
0.09375 0.0625 0
0.0625 0.09375 0
0.09375 0.09375 0
0.09375 0.0625 0
0.125 0.0625 0
0.09375 0.09375 0
0.125 0.09375 0
0.0625 0.09375 0
0.09375 0.09375 0
0.0625 0.125 0
0.09375 0.125 0
0.09375 0.09375 0
0.125 0.09375 0
0.09375 0.125 0
0.125 0.125 0
0.125 0 0
0.15625 0 0
0.125 0.03125 0
0.15625 0.03125 0
0.15625 0 0
0.1875 0 0
0.15625 0.03125 0
0.1875 0.03125 0
0.125 0.03125 0
0.15625 0.03125 0
0.125 0.0625 0
0.15625 0.0625 0
0.15625 0.03125 0
0.1875 0.03125 0
0.15625 0.0625 0
0.1875 0.0625 0
0.1875 0 0
0.21875 0 0
0.1875 0.03125 0
0.21875 0.03125 0
0.21875 0 0
0.25 0 0
0.21875 0.03125 0
0.25 0.03125 0
0.1875 0.03125 0
0.21875 0.03125 0
0.1875 0.0625 0
0.21875 0.0625 0
0.21875 0.03125 0
0.25 0.03125 0
0.21875 0.0625 0
0.25 0.0625 0
0.125 0.0625 0
0.15625 0.0625 0
0.125 0.09375 0
0.15625 0.09375 0
0.15625 0.0625 0
0.1875 0.0625 0
0.15625 0.09375 0
0.1875 0.09375 0
0.125 0.09375 0
0.15625 0.09375 0
0.125 0.125 0
0.15625 0.125 0
0.15625 0.09375 0
0.1875 0.09375 0
0.15625 0.125 0
0.1875 0.125 0
0.1875 0.0625 0
0.21875 0.0625 0
0.1875 0.09375 0
0.21875 0.09375 0
0.21875 0.0625 0
0.25 0.0625 0
0.21875 0.09375 0
0.25 0.09375 0
0.1875 0.09375 0
0.21875 0.09375 0
0.1875 0.125 0
0.21875 0.125 0
0.21875 0.09375 0
0.25 0.09375 0
0.21875 0.125 0
0.25 0.125 0
0 0.125 0
0.03125 0.125 0
0 0.15625 0
0.03125 0.15625 0
0.03125 0.125 0
0.0625 0.125 0
0.03125 0.15625 0
0.0625 0.15625 0
0 0.15625 0
0.03125 0.15625 0
0 0.1875 0
0.03125 0.1875 0
0.03125 0.15625 0
0.0625 0.15625 0
0.03125 0.1875 0
0.0625 0.1875 0
0.0625 0.125 0
0.09375 0.125 0
0.0625 0.15625 0
0.09375 0.15625 0
0.09375 0.125 0
0.125 0.125 0
0.09375 0.15625 0
0.125 0.15625 0
0.0625 0.15625 0
0.09375 0.15625 0
0.0625 0.1875 0
0.09375 0.1875 0
0.09375 0.15625 0
0.125 0.15625 0
0.09375 0.1875 0
0.125 0.1875 0
0 0.1875 0
0.03125 0.1875 0
0 0.21875 0
0.03125 0.21875 0
0.03125 0.1875 0
0.0625 0.1875 0
0.03125 0.21875 0
0.0625 0.21875 0
0 0.21875 0
0.03125 0.21875 0
0 0.25 0
0.03125 0.25 0
0.03125 0.21875 0
0.0625 0.21875 0
0.03125 0.25 0
0.0625 0.25 0
0.0625 0.1875 0
0.09375 0.1875 0
0.0625 0.21875 0
0.09375 0.21875 0
0.09375 0.1875 0
0.125 0.1875 0
0.09375 0.21875 0
0.125 0.21875 0
0.0625 0.21875 0
0.09375 0.21875 0
0.0625 0.25 0
0.09375 0.25 0
0.09375 0.21875 0
0.125 0.21875 0
0.09375 0.25 0
0.125 0.25 0
0.125 0.125 0
0.15625 0.125 0
0.125 0.15625 0
0.15625 0.15625 0
0.15625 0.125 0
0.1875 0.125 0
0.15625 0.15625 0
0.1875 0.15625 0
0.125 0.15625 0
0.15625 0.15625 0
0.125 0.1875 0
0.15625 0.1875 0
0.15625 0.15625 0
0.1875 0.15625 0
0.15625 0.1875 0
0.1875 0.1875 0
0.1875 0.125 0
0.21875 0.125 0
0.1875 0.15625 0
0.21875 0.15625 0
0.21875 0.125 0
0.25 0.125 0
0.21875 0.15625 0
0.25 0.15625 0
0.1875 0.15625 0
0.21875 0.15625 0
0.1875 0.1875 0
0.21875 0.1875 0
0.21875 0.15625 0
0.25 0.15625 0
0.21875 0.1875 0
0.25 0.1875 0
0.125 0.1875 0
0.15625 0.1875 0
0.125 0.21875 0
0.15625 0.21875 0
0.15625 0.1875 0
0.1875 0.1875 0
0.15625 0.21875 0
0.1875 0.21875 0
0.125 0.21875 0
0.15625 0.21875 0
0.125 0.25 0
0.15625 0.25 0
0.15625 0.21875 0
0.1875 0.21875 0
0.15625 0.25 0
0.1875 0.25 0
0.1875 0.1875 0
0.21875 0.1875 0
0.1875 0.21875 0
0.21875 0.21875 0
0.21875 0.1875 0
0.25 0.1875 0
0.21875 0.21875 0
0.25 0.21875 0
0.1875 0.21875 0
0.21875 0.21875 0
0.1875 0.25 0
0.21875 0.25 0
0.21875 0.21875 0
0.25 0.21875 0
0.21875 0.25 0
0.25 0.25 0
0.25 0 0
0.28125 0 0
0.25 0.03125 0
0.28125 0.03125 0
0.28125 0 0
0.3125 0 0
0.28125 0.03125 0
0.3125 0.03125 0
0.25 0.03125 0
0.28125 0.03125 0
0.25 0.0625 0
0.28125 0.0625 0
0.28125 0.03125 0
0.3125 0.03125 0
0.28125 0.0625 0
0.3125 0.0625 0
0.3125 0 0
0.34375 0 0
0.3125 0.03125 0
0.34375 0.03125 0
0.34375 0 0
0.375 0 0
0.34375 0.03125 0
0.375 0.03125 0
0.3125 0.03125 0
0.34375 0.03125 0
0.3125 0.0625 0
0.34375 0.0625 0
0.34375 0.03125 0
0.375 0.03125 0
0.34375 0.0625 0
0.375 0.0625 0
0.25 0.0625 0
0.28125 0.0625 0
0.25 0.09375 0
0.28125 0.09375 0
0.28125 0.0625 0
0.3125 0.0625 0
0.28125 0.09375 0
0.3125 0.09375 0
0.25 0.09375 0
0.28125 0.09375 0
0.25 0.125 0
0.28125 0.125 0
0.28125 0.09375 0
0.3125 0.09375 0
0.28125 0.125 0
0.3125 0.125 0
0.3125 0.0625 0
0.34375 0.0625 0
0.3125 0.09375 0
0.34375 0.09375 0
0.34375 0.0625 0
0.375 0.0625 0
0.34375 0.09375 0
0.375 0.09375 0
0.3125 0.09375 0
0.34375 0.09375 0
0.3125 0.125 0
0.34375 0.125 0
0.34375 0.09375 0
0.375 0.09375 0
0.34375 0.125 0
0.375 0.125 0
0.375 0 0
0.40625 0 0
0.375 0.03125 0
0.40625 0.03125 0
0.40625 0 0
0.4375 0 0
0.40625 0.03125 0
0.4375 0.03125 0
0.375 0.03125 0
0.40625 0.03125 0
0.375 0.0625 0
0.40625 0.0625 0
0.40625 0.03125 0
0.4375 0.03125 0
0.40625 0.0625 0
0.4375 0.0625 0
0.4375 0 0
0.46875 0 0
0.4375 0.03125 0
0.46875 0.03125 0
0.46875 0 0
0.5 0 0
0.46875 0.03125 0
0.5 0.03125 0
0.4375 0.03125 0
0.46875 0.03125 0
0.4375 0.0625 0
0.46875 0.0625 0
0.46875 0.03125 0
0.5 0.03125 0
0.46875 0.0625 0
0.5 0.0625 0
0.375 0.0625 0
0.40625 0.0625 0
0.375 0.09375 0
0.40625 0.09375 0
0.40625 0.0625 0
0.4375 0.0625 0
0.40625 0.09375 0
0.4375 0.09375 0
0.375 0.09375 0
0.40625 0.09375 0
0.375 0.125 0
0.40625 0.125 0
0.40625 0.09375 0
0.4375 0.09375 0
0.40625 0.125 0
0.4375 0.125 0
0.4375 0.0625 0
0.46875 0.0625 0
0.4375 0.09375 0
0.46875 0.09375 0
0.46875 0.0625 0
0.5 0.0625 0
0.46875 0.09375 0
0.5 0.09375 0
0.4375 0.09375 0
0.46875 0.09375 0
0.4375 0.125 0
0.46875 0.125 0
0.46875 0.09375 0
0.5 0.09375 0
0.46875 0.125 0
0.5 0.125 0
0.25 0.125 0
0.28125 0.125 0
0.25 0.15625 0
0.28125 0.15625 0
0.28125 0.125 0
0.3125 0.125 0
0.28125 0.15625 0
0.3125 0.15625 0
0.25 0.15625 0
0.28125 0.15625 0
0.25 0.1875 0
0.28125 0.1875 0
0.28125 0.15625 0
0.3125 0.15625 0
0.28125 0.1875 0
0.3125 0.1875 0
0.3125 0.125 0
0.34375 0.125 0
0.3125 0.15625 0
0.34375 0.15625 0
0.34375 0.125 0
0.375 0.125 0
0.34375 0.15625 0
0.375 0.15625 0
0.3125 0.15625 0
0.34375 0.15625 0
0.3125 0.1875 0
0.34375 0.1875 0
0.34375 0.15625 0
0.375 0.15625 0
0.34375 0.1875 0
0.375 0.1875 0
0.25 0.1875 0
0.28125 0.1875 0
0.25 0.21875 0
0.28125 0.21875 0
0.28125 0.1875 0
0.3125 0.1875 0
0.28125 0.21875 0
0.3125 0.21875 0
0.25 0.21875 0
0.28125 0.21875 0
0.25 0.25 0
0.28125 0.25 0
0.28125 0.21875 0
0.3125 0.21875 0
0.28125 0.25 0
0.3125 0.25 0
0.3125 0.1875 0
0.34375 0.1875 0
0.3125 0.21875 0
0.34375 0.21875 0
0.34375 0.1875 0
0.375 0.1875 0
0.34375 0.21875 0
0.375 0.21875 0
0.3125 0.21875 0
0.34375 0.21875 0
0.3125 0.25 0
0.34375 0.25 0
0.34375 0.21875 0
0.375 0.21875 0
0.34375 0.25 0
0.375 0.25 0
0.375 0.125 0
0.40625 0.125 0
0.375 0.15625 0
0.40625 0.15625 0
0.40625 0.125 0
0.4375 0.125 0
0.40625 0.15625 0
0.4375 0.15625 0
0.375 0.15625 0
0.40625 0.15625 0
0.375 0.1875 0
0.40625 0.1875 0
0.40625 0.15625 0
0.4375 0.15625 0
0.40625 0.1875 0
0.4375 0.1875 0
0.4375 0.125 0
0.46875 0.125 0
0.4375 0.15625 0
0.46875 0.15625 0
0.46875 0.125 0
0.5 0.125 0
0.46875 0.15625 0
0.5 0.15625 0
0.4375 0.15625 0
0.46875 0.15625 0
0.4375 0.1875 0
0.46875 0.1875 0
0.46875 0.15625 0
0.5 0.15625 0
0.46875 0.1875 0
0.5 0.1875 0
0.375 0.1875 0
0.40625 0.1875 0
0.375 0.21875 0
0.40625 0.21875 0
0.40625 0.1875 0
0.4375 0.1875 0
0.40625 0.21875 0
0.4375 0.21875 0
0.375 0.21875 0
0.40625 0.21875 0
0.375 0.25 0
0.40625 0.25 0
0.40625 0.21875 0
0.4375 0.21875 0
0.40625 0.25 0
0.4375 0.25 0
0.4375 0.1875 0
0.46875 0.1875 0
0.4375 0.21875 0
0.46875 0.21875 0
0.46875 0.1875 0
0.5 0.1875 0
0.46875 0.21875 0
0.5 0.21875 0
0.4375 0.21875 0
0.46875 0.21875 0
0.4375 0.25 0
0.46875 0.25 0
0.46875 0.21875 0
0.5 0.21875 0
0.46875 0.25 0
0.5 0.25 0
0 0.25 0
0.03125 0.25 0
0 0.28125 0
0.03125 0.28125 0
0.03125 0.25 0
0.0625 0.25 0
0.03125 0.28125 0
0.0625 0.28125 0
0 0.28125 0
0.03125 0.28125 0
0 0.3125 0
0.03125 0.3125 0
0.03125 0.28125 0
0.0625 0.28125 0
0.03125 0.3125 0
0.0625 0.3125 0
0.0625 0.25 0
0.09375 0.25 0
0.0625 0.28125 0
0.09375 0.28125 0
0.09375 0.25 0
0.125 0.25 0
0.09375 0.28125 0
0.125 0.28125 0
0.0625 0.28125 0
0.09375 0.28125 0
0.0625 0.3125 0
0.09375 0.3125 0
0.09375 0.28125 0
0.125 0.28125 0
0.09375 0.3125 0
0.125 0.3125 0
0 0.3125 0
0.03125 0.3125 0
0 0.34375 0
0.03125 0.34375 0
0.03125 0.3125 0
0.0625 0.3125 0
0.03125 0.34375 0
0.0625 0.34375 0
0 0.34375 0
0.03125 0.34375 0
0 0.375 0
0.03125 0.375 0
0.03125 0.34375 0
0.0625 0.34375 0
0.03125 0.375 0
0.0625 0.375 0
0.0625 0.3125 0
0.09375 0.3125 0
0.0625 0.34375 0
0.09375 0.34375 0
0.09375 0.3125 0
0.125 0.3125 0
0.09375 0.34375 0
0.125 0.34375 0
0.0625 0.34375 0
0.09375 0.34375 0
0.0625 0.375 0
0.09375 0.375 0
0.09375 0.34375 0
0.125 0.34375 0
0.09375 0.375 0
0.125 0.375 0
0.125 0.25 0
0.15625 0.25 0
0.125 0.28125 0
0.15625 0.28125 0
0.15625 0.25 0
0.1875 0.25 0
0.15625 0.28125 0
0.1875 0.28125 0
0.125 0.28125 0
0.15625 0.28125 0
0.125 0.3125 0
0.15625 0.3125 0
0.15625 0.28125 0
0.1875 0.28125 0
0.15625 0.3125 0
0.1875 0.3125 0
0.1875 0.25 0
0.21875 0.25 0
0.1875 0.28125 0
0.21875 0.28125 0
0.21875 0.25 0
0.25 0.25 0
0.21875 0.28125 0
0.25 0.28125 0
0.1875 0.28125 0
0.21875 0.28125 0
0.1875 0.3125 0
0.21875 0.3125 0
0.21875 0.28125 0
0.25 0.28125 0
0.21875 0.3125 0
0.25 0.3125 0
0.125 0.3125 0
0.15625 0.3125 0
0.125 0.34375 0
0.15625 0.34375 0
0.15625 0.3125 0
0.1875 0.3125 0
0.15625 0.34375 0
0.1875 0.34375 0
0.125 0.34375 0
[...]
POINT_DATA 4096
SCALARS p double 1
LOOKUP_TABLE default
2.66739e-08 5.62412e-05 -5.70515e-05 1.86169e-07 5.62412e-05 -0.000209493 1.86169e-07 -0.000222119 -5.70515e-05 1.86169e-07 0.000206746 0.00022342 1.86169e-07 -0.000222119 0.00022342 3.40107e-07 -0.000209493 -0.000931063 -0.000222119 -0.00079748 -0.000931063 -0.00208609 -0.00079748 -0.00171312 -0.000222119 -0.00079748 3.40107e-07 -0.000664662 -0.00079748 -0.00171312 -0.000664662 -0.00169993 0.000206746 0.00022342 0.000930144 0.000804236 0.00022342 3.40107e-07 0.000804236 0.000664072 0.000930144 0.000804236 0.00210717 0.00174253 0.000804236 0.000664072 0.00174253 0.00171218 3.40107e-07 -0.000664662 0.000664072 -1.2096e-05 -0.000664662 -0.00169993 -1.2096e-05 -0.00103534 0.000664072 -1.2096e-05 0.00171218 0.000987001 -1.2096e-05 -0.00103534 0.000987001 -6.55763e-05 -0.00208609 -0.00365652 -0.00171312 -0.00296156 -0.00365652 -0.00562467 -0.00296156 -0.00452831 -0.00171312 -0.00296156 -0.00169993 -0.00311093 -0.00296156 -0.00452831 -0.00311093 -0.00487948 -0.00562467 -0.00796886 -0.00452831 -0.00639613 -0.00796886 -0.0106634 -0.00639613 -0.00854464 -0.00452831 -0.00639613 -0.00487948 -0.00698635 -0.00639613 -0.00854464 -0.00698635 -0.00940853 -0.00169993 -0.00311093 -0.00103534 -0.00243589 -0.00311093 -0.00487948 -0.00243589 -0.00419177 -0.00103534 -0.00243589 -6.55763e-05 -0.001513 -0.00243589 -0.00419177 -0.001513 -0.00332681 -0.00487948 -0.00698635 -0.00419177 -0.00628415 -0.00698635 -0.00940853 -0.00628415 -0.00869012 -0.00419177 -0.00628415 -0.00332681 -0.00548788 -0.00628415 -0.00869012 -0.00548788 -0.00797235 0.00210717 0.00174253 0.00374601 0.00305159 0.00174253 0.00171218 0.00305159 0.00317335 0.00374601 0.00305159 0.00586445 0.00474531 0.00305159 0.00317335 0.00474531 0.00506138 0.00171218 0.000987001 0.00317335 0.00238521 0.000987001 -6.55763e-05 0.00238521 0.00129824 0.00317335 0.00238521 0.00506138 0.00419173 0.00238521 0.00129824 0.00419173 0.00305891 0.00586445 0.00474531 0.00848623 0.00684265 0.00474531 0.00506138 0.00684265 0.00739772 0.00848623 0.00684265 0.0116411 0.00936733 0.00684265 0.00739772 0.00936733 0.0102088 0.00506138 0.00419173 0.00739772 0.00642723 0.00419173 0.00305891 0.00642723 0.00523691 0.00739772 0.00642723 0.0102088 0.00911687 0.00642723 0.00523691 0.00911687 0.00785646 -6.55763e-05 -0.001513 0.00129824 -0.000205652 -0.001513 -0.00332681 -0.000205652 -0.00208938 0.00129824 -0.000205652 0.00305891 0.00148088 -0.000205652 -0.00208938 0.00148088 -0.000494585 -0.00332681 -0.00548788 -0.00208938 -0.00433342 -0.00548788 -0.00797235 -0.00433342 -0.00691283 -0.00208938 -0.00433342 -0.000494585 -0.00284732 -0.00433342 -0.00691283 -0.00284732 -0.00555095 0.00305891 0.00148088 0.00523691 0.00356649 0.00148088 -0.000494585 0.00356649 0.00147684 0.00523691 0.00356649 0.00785646 0.00607394 0.00356649 0.00147684 0.00607394 0.00384596 -0.000494585 -0.00284732 0.00147684 -0.00101106 -0.00284732 -0.00555095 -0.00101106 -0.00386896 0.00147684 -0.00101106 0.00384596 0.00119458 -0.00101106 -0.00386896 0.00119458 -0.0018496 -0.0106634 -0.0136788 -0.00854464 -0.0109504 -0.0136788 -0.0169825 -0.0109504 -0.0135872 -0.00854464 -0.0109504 -0.00940853 -0.0121196 -0.0109504 -0.0135872 -0.0121196 -0.0150901 -0.0169825 -0.020539 -0.0135872 -0.0164271 -0.020539 -0.0243105 -0.0164271 -0.0194395 -0.0135872 -0.0164271 -0.0150901 -0.0182883 -0.0164271 -0.0194395 -0.0182883 -0.0216799 -0.00940853 -0.0121196 -0.00869012 -0.0113834 -0.0121196 -0.0150901 -0.0113834 -0.0143348 -0.00869012 -0.0113834 -0.00797235 -0.010753 -0.0113834 -0.0143348 -0.010753 -0.0137997 -0.0150901 -0.0182883 -0.0143348 -0.0175126 -0.0182883 -0.0216799 -0.0175126 -0.0208827 -0.0143348 -0.0175126 -0.0137997 -0.0170796 -0.0175126 -0.0208827 -0.0170796 -0.0205576 -0.0243105 -0.0282566 -0.0194395 -0.0225924 -0.0282566 -0.0323356 -0.0225924 -0.0258524 -0.0194395 -0.0225924 -0.0216799 -0.0252289 -0.0225924 -0.0258524 -0.0252289 -0.0288976 -0.0323356 -0.0365045 -0.0258524 -0.029185 -0.0365045 -0.0407194 -0.029185 -0.032555 -0.0258524 -0.029185 -0.0288976 -0.0326473 -0.029185 -0.032555 -0.0326473 -0.0364385 -0.0216799 -0.0252289 -0.0208827 -0.0244094 -0.0252289 -0.0288976 -0.0244094 -0.0280553 -0.0208827 -0.0244094 -0.0205576 -0.0241966 -0.0244094 -0.0280553 -0.0241966 -0.0279585 -0.0288976 -0.0326473 -0.0280553 -0.0317819 -0.0326473 -0.0364385 -0.0317819 -0.03555 -0.0280553 -0.0317819 -0.0279585 -0.0318034 -0.0317819 -0.03555 -0.0318034 -0.0356912 -0.00797235 -0.010753 -0.00691283 -0.00979922 -0.010753 -0.0137997 -0.00979922 -0.0129611 -0.00691283 -0.00979922 -0.00555095 -0.00857542 -0.00979922 -0.0129611 -0.00857542 -0.0118876 -0.0137997 -0.0170796 -0.0129611 -0.0163642 -0.0170796 -0.0205576 -0.0163642 -0.0199724 -0.0129611 -0.0163642 -0.0118876 -0.0154516 -0.0163642 -0.0199724 -0.0154516 -0.0192293 -0.00555095 -0.00857542 -0.00386896 -0.00706469 -0.00857542 -0.0118876 -0.00706469 -0.010563 -0.00386896 -0.00706469 -0.0018496 -0.00525186 -0.00706469 -0.010563 -0.00525186 -0.00897438 -0.0118876 -0.0154516 -0.010563 -0.0143259 -0.0154516 -0.0192293 -0.0143259 -0.0183131 -0.010563 -0.0143259 -0.00897438 -0.0129763 -0.0143259 -0.0183131 -0.0129763 -0.017215 -0.0205576 -0.0241966 -0.0199724 -0.0237471 -0.0241966 -0.0279585 -0.0237471 -0.0276488 -0.0199724 -0.0237471 -0.0192293 -0.0231806 -0.0237471 -0.0276488 -0.0231806 -0.0272642 -0.0279585 -0.0318034 -0.0276488 -0.0316364 -0.0318034 -0.0356912 -0.0316364 -0.0356685 -0.0276488 -0.0316364 -0.0272642 -0.0314374 -0.0316364 -0.0356685 -0.0314374 -0.0356569 -0.0192293 -0.0231806 -0.0183131 -0.0224824 -0.0231806 -0.0272642 -0.0224824 -0.0267903 -0.0183131 -0.0224824 -0.017215 -0.0216456 -0.0224824 -0.0267903 -0.0216456 -0.0262223 -0.0272642 -0.0314374 -0.0267903 -0.0311922 -0.0314374 -0.0356569 -0.0311922 -0.0356429 -0.0267903 -0.0311922 -0.0262223 -0.0308981 -0.0311922 -0.0356429 -0.0308981 -0.0356255 0.0116411 0.00936733 0.015365 0.0123482 0.00936733 0.0102088 0.0123482 0.0135268 0.015365 0.0123482 0.0197011 0.0158197 0.0123482 0.0135268 0.0158197 0.01739 0.0102088 0.00911687 0.0135268 0.0122911 0.00911687 0.00785646 0.0122911 0.0109467 0.0135268 0.0122911 0.01739 0.0159862 0.0122911 0.0109467 0.0159862 0.0145424 0.0197011 0.0158197 0.0247006 0.0198227 0.0158197 0.01739 0.0198227 0.0218438 0.0247006 0.0198227 0.0304229 0.024405 0.0198227 0.0218438 0.024405 0.0269413 0.01739 0.0159862 0.0218438 0.0202449 0.0159862 0.0145424 0.0202449 0.0186841 0.0218438 0.0202449 0.0269413 0.0251171 0.0202449 0.0186841 0.0251171 0.0234192 0.00785646 0.00607394 0.0109467 0.00903062 0.00607394 0.00384596 0.00903062 0.00663799 0.0109467 0.00903062 0.0145424 0.0124689 0.00903062 0.00663799 0.0124689 0.00988263 0.00384596 0.00119458 0.00663799 0.00379238 0.00119458 -0.0018496 0.00379238 0.000527322 0.00663799 0.00379238 0.00988263 0.00680909 0.00379238 0.000527322 0.00680909 0.00328537 0.0145424 0.0124689 0.0186841 0.0164266 0.0124689 0.00988263 0.0164266 0.0136143 0.0186841 0.0164266 0.0234192 0.0209473 0.0164266 0.0136143 0.0209473 0.0178724 0.00988263 0.00680909 0.0136143 0.0102754 0.00680909 0.00328537 0.0102754 0.00645139 0.0136143 0.0102754 0.0178724 0.0142261 0.0102754 0.00645139 0.0142261 0.0100556 0.0304229 0.024405 0.0369384 0.0296227 0.024405 0.0269413 0.0296227 0.0327447 0.0369384 0.0296227 0.0443293 0.0355415 0.0296227 0.0327447 0.0355415 0.0393268 0.0269413 0.0251171 0.0327447 0.0306611 0.0251171 0.0234192 0.0306611 0.0288026 0.0327447 0.0306611 0.0393268 0.0369446 0.0306611 0.0288026 0.0369446 0.0348976 0.0443293 0.0355415 0.0526917 0.0422383 0.0355415 0.0393268 0.0422383 0.0467728 0.0526917 0.0422383 0.0621393 0.0498041 0.0422383 0.0467728 0.0498041 0.055183 0.0393268 0.0369446 0.0467728 0.0440465 0.0369446 0.0348976 0.0440465 0.0417772 0.0467728 0.0440465 0.055183 0.0520592 0.0440465 0.0417772 0.0520592 0.0495261 0.0234192 0.0209473 0.0288026 0.0260812 0.0209473 0.0178724 0.0260812 0.0227018 0.0288026 0.0260812 0.0348976 0.0318858 0.0260812 0.0227018 0.0318858 0.0281533 0.0178724 0.0142261 0.0227018 0.0187006 0.0142261 0.0100556 0.0187006 0.0141316 0.0227018 0.0187006 0.0281533 0.0237424 0.0187006 0.0141316 0.0237424 0.018716 0.0348976 0.0318858 0.0417772 0.0384264 0.0318858 0.0281533 0.0384264 0.0342836 0.0417772 0.0384264 0.0495261 0.0457774 0.0384264 0.0342836 0.0457774 0.041156 0.0281533 0.0237424 0.0342836 0.0293995 0.0237424 0.018716 0.0293995 0.0238481 0.0342836 0.0293995 0.041156 0.035724 0.0293995 0.0238481 0.035724 0.0295693 -0.0018496 -0.00525186 0.000527322 -0.00311936 -0.00525186 -0.00897438 -0.00311936 -0.0071066 0.000527322 -0.00311936 0.00328537 -0.000646817 -0.00311936 -0.0071066 -0.000646817 -0.00494255 -0.00897438 -0.0129763 -0.0071066 -0.0113905 -0.0129763 -0.017215 -0.0113905 -0.0159251 -0.0071066 -0.0113905 -0.00494255 -0.00955418 -0.0113905 -0.0159251 -0.00955418 -0.0144323 0.00328537 -0.000646817 0.00645139 0.00218877 -0.000646817 -0.00494255 0.00218877 -0.00246293 0.00645139 0.00218877 0.0100556 0.00541308 0.00218877 -0.00246293 0.00541308 0.00035347 -0.00494255 -0.00955418 -0.00246293 -0.00745176 -0.00955418 -0.0144323 -0.00745176 -0.0127241 -0.00246293 -0.00745176 0.00035347 -0.00506603 -0.00745176 -0.0127241 -0.00506603 -0.0107871 -0.017215 -0.0216456 -0.0159251 -0.020663 -0.0216456 -0.0262223 -0.020663 -0.0255553 -0.0159251 -0.020663 -0.0144323 -0.0195259 -0.020663 -0.0255553 -0.0195259 -0.0247832 -0.0262223 -0.0308981 -0.0255553 -0.0305524 -0.0308981 -0.0356255 -0.0305524 -0.0356041 -0.0255553 -0.0305524 -0.0247832 -0.0301516 -0.0305524 -0.0356041 -0.0301516 -0.0355781 -0.0144323 -0.0195259 -0.0127241 -0.0182252 -0.0195259 -0.0247832 -0.0182252 -0.0238999 -0.0127241 -0.0182252 -0.0107871 -0.0167509 -0.0182252 -0.0238999 -0.0167509 -0.0228985 -0.0247832 -0.0301516 -0.0238999 -0.0296924 -0.0301516 -0.0355781 -0.0296924 -0.0355466 -0.0238999 -0.0296924 -0.0228985 -0.0291707 -0.0296924 -0.0355466 -0.0291707 -0.0355086 0.0100556 0.00541308 0.0141316 0.00905407 0.00541308 0.00035347 0.00905407 0.00352949 0.0141316 0.00905407 0.018716 0.0131417 0.00905407 0.00352949 0.0131417 0.00708911 0.00035347 -0.00506603 0.00352949 -0.00237889 -0.00506603 -0.0107871 -0.00237889 -0.0086075 0.00352949 -0.00237889 0.00708911 0.000628345 -0.00237889 -0.0086075 0.000628345 -0.00617102 0.018716 0.0131417 0.0238481 0.0177075 0.0131417 0.00708911 0.0177075 0.0110567 0.0238481 0.0177075 0.0295693 0.0227832 0.0177075 0.0110567 0.0227832 0.0154561 0.00708911 0.000628345 0.0110567 0.00397413 0.000628345 -0.00617102 0.00397413 -0.00346417 0.0110567 0.00397413 0.0154561 0.00767566 0.00397413 -0.00346417 0.00767566 -0.000474817 -0.0107871 -0.0167509 -0.0086075 -0.0150929 -0.0167509 -0.0228985 -0.0150929 -0.0217721 -0.0086075 -0.0150929 -0.00617102 -0.0132406 -0.0150929 -0.0217721 -0.0132406 -0.0205136 -0.0228985 -0.0291707 -0.0217721 -0.0285827 -0.0291707 -0.0355086 -0.0285827 -0.0354629 -0.0217721 -0.0285827 -0.0205136 -0.0279243 -0.0285827 -0.0354629 -0.0279243 -0.0354082 -0.00617102 -0.0132406 -0.00346417 -0.0111846 -0.0132406 -0.0205136 -0.0111846 -0.0191166 -0.00346417 -0.0111846 -0.000474817 -0.0089166 -0.0111846 -0.0191166 -0.0089166 -0.0175755 -0.0205136 -0.0279243 -0.0191166 -0.0271915 -0.0279243 -0.0354082 -0.0271915 -0.0353428 -0.0191166 -0.0271915 -0.0175755 -0.026381 -0.0271915 -0.0353428 -0.026381 -0.035265 -0.0407194 -0.0449356 -0.032555 -0.0359267 -0.0449356 -0.0491088 -0.0359267 -0.0392644 -0.032555 -0.0359267 -0.0364385 -0.0402312 -0.0359267 -0.0392644 -0.0402312 -0.0439854 -0.0491088 -0.053195 -0.0392644 -0.0425328 -0.053195 -0.0571508 -0.0425328 -0.0456971 -0.0392644 -0.0425328 -0.0439854 -0.0476613 -0.0425328 -0.0456971 -0.0476613 -0.0512202 -0.0364385 -0.0402312 -0.03555 -0.0393199 -0.0402312 -0.0439854 -0.0393199 -0.0430519 -0.03555 -0.0393199 -0.0356912 -0.0395809 -0.0393199 -0.0430519 -0.0395809 -0.0434318 -0.0439854 -0.0476613 -0.0430519 -0.0467065 -0.0476613 -0.0512202 -0.0467065 -0.0502451 -0.0430519 -0.0467065 -0.0434318 -0.0472032 -0.0467065 -0.0502451 -0.0472032 -0.0508554 -0.0571508 -0.0609341 -0.0456971 -0.0487235 -0.0609341 -0.0645043 -0.0487235 -0.0515792 -0.0456971 -0.0487235 -0.0512202 -0.0546239 -0.0487235 -0.0515792 -0.0546239 -0.0578359 -0.0645043 -0.0678228 -0.0515792 -0.0542335 -0.0678228 -0.0708539 -0.0542335 -0.0566573 -0.0515792 -0.0542335 -0.0578359 -0.0608216 -0.0542335 -0.0566573 -0.0608216 -0.0635485 -0.0512202 -0.0546239 -0.0502451 -0.0536297 -0.0546239 -0.0578359 -0.0536297 -0.0568241 -0.0502451 -0.0536297 -0.0508554 -0.0543494 -0.0536297 -0.0568241 -0.0543494 -0.0576476 -0.0578359 -0.0608216 -0.0568241 -0.0597936 -0.0608216 -0.0635485 -0.0597936 -0.0625059 -0.0568241 -0.0597936 -0.0576476 -0.0607144 -0.0597936 -0.0625059 -0.0607144 -0.0635161 -0.0356912 -0.0395809 -0.0356685 -0.0397028 -0.0395809 -0.0434318 -0.0397028 -0.0436971 -0.0356685 -0.0397028 -0.0356569 -0.0398791 -0.0397028 -0.0436971 -0.0398791 -0.04406 -0.0434318 -0.0472032 -0.0436971 -0.0476098 -0.0472032 -0.0508554 -0.0476098 -0.0513993 -0.0436971 -0.0476098 -0.04406 -0.0481561 -0.0476098 -0.0513993 -0.0481561 -0.0521245 -0.0356569 -0.0398791 -0.0356429 -0.0400966 -0.0398791 -0.04406 -0.0400966 -0.0445075 -0.0356429 -0.0400966 -0.0356255 -0.0403563 -0.0400966 -0.0445075 -0.0403563 -0.0450426 -0.04406 -0.0481561 -0.0445075 -0.04883 -0.0481561 -0.0521245 -0.04883 -0.0530191 -0.0445075 -0.04883 -0.0450426 -0.0496363 -0.04883 -0.0530191 -0.0496363 -0.0540901 -0.0508554 -0.0543494 -0.0513993 -0.0550257 -0.0543494 -0.0576476 -0.0550257 -0.0584498 -0.0513993 -0.0550257 -0.0521245 -0.0559231 -0.0550257 -0.0584498 -0.0559231 -0.0595113 -0.0576476 -0.0607144 -0.0584498 -0.0616345 -0.0607144 -0.0635161 -0.0616345 -0.064545 -0.0584498 -0.0616345 -0.0595113 -0.0628499 -0.0616345 -0.064545 -0.0628499 -0.0659021 -0.0521245 -0.0559231 -0.0530191 -0.0570306 -0.0559231 -0.0595113 -0.0570306 -0.0608216 -0.0530191 -0.0570306 -0.0540901 -0.0583572 -0.0570306 -0.0608216 -0.0583572 -0.0623921 -0.0595113 -0.0628499 -0.0608216 -0.0643507 -0.0628499 -0.0659021 -0.0643507 -0.0675789 -0.0608216 -0.0643507 -0.0623921 -0.0661507 -0.0643507 -0.0675789 -0.0661507 -0.0695911 -0.0708539 -0.0735645 -0.0566573 -0.058824 -0.0735645 -0.0759242 -0.058824 -0.0607103 -0.0566573 -0.058824 -0.0635485 -0.0659869 -0.058824 -0.0607103 -0.0659869 -0.068109 -0.0759242 -0.0779136 -0.0607103 -0.0622896 -0.0779136 -0.0794633 -0.0622896 -0.0636008 -0.0607103 -0.0622896 -0.068109 -0.0698939 -0.0622896 -0.0636008 -0.0698939 -0.0713435 -0.0635485 -0.0659869 -0.0625059 -0.064931 -0.0659869 -0.068109 -0.064931 -0.0670418 -0.0625059 -0.064931 -0.0635161 -0.0660217 -0.064931 -0.0670418 -0.0660217 -0.0682031 -0.068109 -0.0698939 -0.0670418 -0.0688153 -0.0698939 -0.0713435 -0.0688153 -0.0702583 -0.0670418 -0.0688153 -0.0682031 -0.0700366 -0.0688153 -0.0702583 -0.0700366 -0.0715278 -0.0794633 -0.0808178 -0.0636008 -0.0642044 -0.0808178 -0.0816504 -0.0642044 -0.0665603 -0.0636008 -0.0642044 -0.0713435 -0.0721007 -0.0642044 -0.0665603 -0.0721007 -0.0744505 -0.0816504 -0.0773128 -0.0665603 -0.0590679 -0.0773128 -0.0857615 -0.0590679 -0.0772076 -0.0665603 -0.0590679 -0.0744505 -0.0670103 -0.0590679 -0.0772076 -0.0670103 -0.0820854 -0.0713435 -0.0721007 -0.0702583 -0.0709944 -0.0721007 -0.0744505 -0.0709944 -0.0734466 -0.0702583 -0.0709944 -0.0715278 -0.0723026 -0.0709944 -0.0734466 -0.0723026 -0.074793 -0.0744505 -0.0670103 -0.0734466 -0.0658294 -0.0670103 -0.0820854 -0.0658294 -0.0827143 -0.0734466 -0.0658294 -0.074793 -0.0671032 -0.0658294 -0.0827143 -0.0671032 -0.0837149 -0.0635161 -0.0660217 -0.064545 -0.0671486 -0.0660217 -0.0682031 -0.0671486 -0.069416 -0.064545 -0.0671486 -0.0659021 -0.0686338 -0.0671486 -0.069416 -0.0686338 -0.0710137 -0.0682031 -0.0700366 -0.069416 -0.0713222 -0.0700366 -0.0715278 -0.0713222 -0.0728732 -0.069416 -0.0713222 -0.0710137 -0.0730153 -0.0713222 -0.0728732 -0.0730153 -0.0746437 -0.0659021 -0.0686338 -0.0675789 -0.0704696 -0.0686338 -0.0710137 -0.0704696 -0.0729894 -0.0675789 -0.0704696 -0.0695911 -0.072674 -0.0704696 -0.0729894 -0.072674 -0.075363 -0.0710137 -0.0730153 -0.0729894 -0.0751096 -0.0730153 -0.0746437 -0.0751096 -0.0768344 -0.0729894 -0.0751096 -0.075363 -0.0776271 -0.0751096 -0.0768344 -0.0776271 -0.079469 -0.0715278 -0.0723026 -0.0728732 -0.0736843 -0.0723026 -0.074793 -0.0736843 -0.0762397 -0.0728732 -0.0736843 -0.0746437 -0.0755036 -0.0736843 -0.0762397 -0.0755036 -0.0781399 -0.074793 -0.0671032 -0.0762397 -0.0683789 -0.0671032 -0.0837149 -0.0683789 -0.0854016 -0.0762397 -0.0683789 -0.0781399 -0.0700951 -0.0683789 -0.0854016 -0.0700951 -0.0875312 -0.0746437 -0.0755036 -0.0768344 -0.0777555 -0.0755036 -0.0781399 -0.0777555 -0.0804936 -0.0768344 -0.0777555 -0.079469 -0.0804648 -0.0777555 -0.0804936 -0.0804648 -0.0833252 -0.0781399 -0.0700951 -0.0804936 -0.0722151 -0.0700951 -0.0875312 -0.0722151 -0.090175 -0.0804936 -0.0722151 -0.0833252 -0.0747689 -0.0722151 -0.090175 -0.0747689 -0.0933564 -0.0356255 -0.0403563 -0.0356041 -0.04066 -0.0403563 -0.0450426 -0.04066 -0.0456694 -0.0356041 -0.04066 -0.0355781 -0.0410094 -0.04066 -0.0456694 -0.0410094 -0.0463922 -0.0450426 -0.0496363 -0.0456694 -0.0505816 -0.0496363 -0.0540901 -0.0505816 -0.0553466 -0.0456694 -0.0505816 -0.0463922 -0.051673 -0.0505816 -0.0553466 -0.051673 -0.0567986 -0.0355781 -0.0410094 -0.0355466 -0.0414065 -0.0410094 -0.0463922 -0.0414065 -0.0472159 -0.0355466 -0.0414065 -0.0355086 -0.0418531 -0.0414065 -0.0472159 -0.0418531 -0.0481452 -0.0463922 -0.051673 -0.0472159 -0.0529182 -0.051673 -0.0567986 -0.0529182 -0.058457 -0.0472159 -0.0529182 -0.0481452 -0.0543252 -0.0529182 -0.058457 -0.0543252 -0.0603333 -0.0540901 -0.0583572 -0.0553466 -0.0599147 -0.0583572 -0.0623921 -0.0599147 -0.0642373 -0.0553466 -0.0599147 -0.0567986 -0.0617161 -0.0599147 -0.0642373 -0.0617161 -0.0663734 -0.0623921 -0.0661507 -0.0642373 -0.0682671 -0.0661507 -0.0695911 -0.0682671 -0.0719589 -0.0642373 -0.0682671 -0.0663734 -0.0707195 -0.0682671 -0.0719589 -0.0707195 -0.0747052 -0.0567986 -0.0617161 -0.058457 -0.0637758 -0.0617161 -0.0663734 -0.0637758 -0.0688187 -0.058457 -0.0637758 -0.0603333 -0.0661093 -0.0637758 -0.0688187 -0.0661093 -0.0715928 -0.0663734 -0.0707195 -0.0688187 -0.0735302 -0.0707195 -0.0747052 -0.0735302 -0.0778564 -0.0688187 -0.0735302 -0.0715928 -0.0767235 -0.0735302 -0.0778564 -0.0767235 -0.0814419 -0.0355086 -0.0418531 -0.0354629 -0.0423509 -0.0418531 -0.0481452 -0.0423509 -0.0491848 -0.0354629 -0.0423509 -0.0354082 -0.0429011 -0.0423509 -0.0491848 -0.0429011 -0.0503389 -0.0481452 -0.0543252 -0.0491848 -0.055902 -0.0543252 -0.0603333 -0.055902 -0.0624395 -0.0491848 -0.055902 -0.0503389 -0.0576563 -0.055902 -0.0624395 -0.0576563 -0.0647869 -0.0354082 -0.0429011 -0.0353428 -0.0435046 -0.0429011 -0.0503389 -0.0435046 -0.0516109 -0.0353428 -0.0435046 -0.035265 -0.0441612 -0.0435046 -0.0516109 -0.0441612 -0.0530028 -0.0503389 -0.0576563 -0.0516109 -0.0595945 -0.0576563 -0.0647869 -0.0595945 -0.0673862 -0.0516109 -0.0595945 -0.0530028 -0.0617214 -0.0595945 -0.0673862 -0.0617214 -0.0702457 -0.0603333 -0.0661093 -0.0624395 -0.0687328 -0.0661093 -0.0715928 -0.0687328 -0.0747168 -0.0624395 -0.0687328 -0.0647869 -0.0716624 -0.0687328 -0.0747168 -0.0716624 -0.0782126 -0.0715928 -0.0767235 -0.0747168 -0.0803259 -0.0767235 -0.0814419 -0.0803259 -0.0854941 -0.0747168 -0.0803259 -0.0782126 -0.0843655 -0.0803259 -0.0854941 -0.0843655 -0.090048 -0.0647869 -0.0716624 -0.0673862 -0.0749137 -0.0716624 -0.0782126 -0.0749137 -0.0821016 -0.0673862 -0.0749137 -0.0702457 -0.0785001 -0.0749137 -0.0821016 -0.0785001 -0.0864042 -0.0782126 -0.0843655 -0.0821016 -0.0888713 -0.0843655 -0.090048 -0.0888713 -0.095141 -0.0821016 -0.0888713 -0.0864042 -0.0938718 -0.0888713 -0.095141 -0.0938718 -0.100812 -0.0695911 -0.072674 -0.0719589 -0.0752698 -0.072674 -0.075363 -0.0752698 -0.0781602 -0.0719589 -0.0752698 -0.0747052 -0.0782836 -0.0752698 -0.0781602 -0.0782836 -0.0814106 -0.075363 -0.0776271 -0.0781602 -0.0805958 -0.0776271 -0.079469 -0.0805958 -0.0825774 -0.0781602 -0.0805958 -0.0814106 -0.0840482 -0.0805958 -0.0825774 -0.0840482 -0.0861949 