# vtk DataFile Version 3.0
#This file was generated by the deal.II library on 2026/1/5 at 14:19:35
ASCII
DATASET UNSTRUCTURED_GRID

POINTS 4096 double
0 0 0
0.03125 0 0
0 0.03125 0
0.03125 0.03125 0
0.03125 0 0
0.0625 0 0
0.03125 0.03125 0
0.0625 0.03125 0
0 0.03125 0
0.03125 0.03125 0
0 0.0625 0
0.03125 0.0625 0
0.03125 0.03125 0
0.0625 0.03125 0
0.03125 0.0625 0
0.0625 0.0625 0
0.0625 0 0
0.09375 0 0
0.0625 0.03125 0
0.09375 0.03125 0
0.09375 0 0
0.125 0 0
0.09375 0.03125 0
0.125 0.03125 0
0.0625 0.03125 0
0.09375 0.03125 0
0.0625 0.0625 0
0.09375 0.0625 0
0.09375 0.03125 0
0.125 0.03125 0
0.09375 0.0625 0
0.125 0.0625 0
0 0.0625 0
0.03125 0.0625 0
0 0.09375 0
0.03125 0.09375 0
0.03125 0.0625 0
0.0625 0.0625 0
0.03125 0.09375 0
0.0625 0.09375 0
0 0.09375 0
0.03125 0.09375 0
0 0.125 0
0.03125 0.125 0
0.03125 0.09375 0
0.0625 0.09375 0
0.03125 0.125 0
0.0625 0.125 0
0.0625 0.0625 0
0.09375 0.0625 0
0.0625 0.09375 0
0.09375 0.09375 0
0.09375 0.0625 0
0.125 0.0625 0
0.09375 0.09375 0
0.125 0.09375 0
0.0625 0.09375 0
0.09375 0.09375 0
0.0625 0.125 0
0.09375 0.125 0
0.09375 0.09375 0
0.125 0.09375 0
0.09375 0.125 0
0.125 0.125 0
0.125 0 0
0.15625 0 0
0.125 0.03125 0
0.15625 0.03125 0
0.15625 0 0
0.1875 0 0
0.15625 0.03125 0
0.1875 0.03125 0
0.125 0.03125 0
0.15625 0.03125 0
0.125 0.0625 0
0.15625 0.0625 0
0.15625 0.03125 0
0.1875 0.03125 0
0.15625 0.0625 0
0.1875 0.0625 0
0.1875 0 0
0.21875 0 0
0.1875 0.03125 0
0.21875 0.03125 0
0.21875 0 0
0.25 0 0
0.21875 0.03125 0
0.25 0.03125 0
0.1875 0.03125 0
0.21875 0.03125 0
0.1875 0.0625 0
0.21875 0.0625 0
0.21875 0.03125 0
0.25 0.03125 0
0.21875 0.0625 0
0.25 0.0625 0
0.125 0.0625 0
0.15625 0.0625 0
0.125 0.09375 0
0.15625 0.09375 0
0.15625 0.0625 0
0.1875 0.0625 0
0.15625 0.09375 0
0.1875 0.09375 0
0.125 0.09375 0
0.15625 0.09375 0
0.125 0.125 0
0.15625 0.125 0
0.15625 0.09375 0
0.1875 0.09375 0
0.15625 0.125 0
0.1875 0.125 0
0.1875 0.0625 0
0.21875 0.0625 0
0.1875 0.09375 0
0.21875 0.09375 0
0.21875 0.0625 0
0.25 0.0625 0
0.21875 0.09375 0
0.25 0.09375 0
0.1875 0.09375 0
0.21875 0.09375 0
0.1875 0.125 0
0.21875 0.125 0
0.21875 0.09375 0
0.25 0.09375 0
0.21875 0.125 0
0.25 0.125 0
0 0.125 0
0.03125 0.125 0
0 0.15625 0
0.03125 0.15625 0
0.03125 0.125 0
0.0625 0.125 0
0.03125 0.15625 0
0.0625 0.15625 0
0 0.15625 0
0.03125 0.15625 0
0 0.1875 0
0.03125 0.1875 0
0.03125 0.15625 0
0.0625 0.15625 0
0.03125 0.1875 0
0.0625 0.1875 0
0.0625 0.125 0
0.09375 0.125 0
0.0625 0.15625 0
0.09375 0.15625 0
0.09375 0.125 0
0.125 0.125 0
0.09375 0.15625 0
0.125 0.15625 0
0.0625 0.15625 0
0.09375 0.15625 0
0.0625 0.1875 0
0.09375 0.1875 0
0.09375 0.15625 0
0.125 0.15625 0
0.09375 0.1875 0
0.125 0.1875 0
0 0.1875 0
0.03125 0.1875 0
0 0.21875 0
0.03125 0.21875 0
0.03125 0.1875 0
0.0625 0.1875 0
0.03125 0.21875 0
0.0625 0.21875 0
0 0.21875 0
0.03125 0.21875 0
0 0.25 0
0.03125 0.25 0
0.03125 0.21875 0
0.0625 0.21875 0
0.03125 0.25 0
0.0625 0.25 0
0.0625 0.1875 0
0.09375 0.1875 0
0.0625 0.21875 0
0.09375 0.21875 0
0.09375 0.1875 0
0.125 0.1875 0
0.09375 0.21875 0
0.125 0.21875 0
0.0625 0.21875 0
0.09375 0.21875 0
0.0625 0.25 0
0.09375 0.25 0
0.09375 0.21875 0
0.125 0.21875 0
0.09375 0.25 0
0.125 0.25 0
0.125 0.125 0
0.15625 0.125 0
0.125 0.15625 0
0.15625 0.15625 0
0.15625 0.125 0
0.1875 0.125 0
0.15625 0.15625 0
0.1875 0.15625 0
0.125 0.15625 0
0.15625 0.15625 0
0.125 0.1875 0
0.15625 0.1875 0
0.15625 0.15625 0
0.1875 0.15625 0
0.15625 0.1875 0
0.1875 0.1875 0
0.1875 0.125 0
0.21875 0.125 0
0.1875 0.15625 0
0.21875 0.15625 0
0.21875 0.125 0
0.25 0.125 0
0.21875 0.15625 0
0.25 0.15625 0
0.1875 0.15625 0
0.21875 0.15625 0
0.1875 0.1875 0
0.21875 0.1875 0
0.21875 0.15625 0
0.25 0.15625 0
0.21875 0.1875 0
0.25 0.1875 0
0.125 0.1875 0
0.15625 0.1875 0
0.125 0.21875 0
0.15625 0.21875 0
0.15625 0.1875 0
0.1875 0.1875 0
0.15625 0.21875 0
0.1875 0.21875 0
0.125 0.21875 0
0.15625 0.21875 0
0.125 0.25 0
0.15625 0.25 0
0.15625 0.21875 0
0.1875 0.21875 0
0.15625 0.25 0
0.1875 0.25 0
0.1875 0.1875 0
0.21875 0.1875 0
0.1875 0.21875 0
0.21875 0.21875 0
0.21875 0.1875 0
0.25 0.1875 0
0.21875 0.21875 0
0.25 0.21875 0
0.1875 0.21875 0
0.21875 0.21875 0
0.1875 0.25 0
0.21875 0.25 0
0.21875 0.21875 0
0.25 0.21875 0
0.21875 0.25 0
0.25 0.25 0
0.25 0 0
0.28125 0 0
0.25 0.03125 0
0.28125 0.03125 0
0.28125 0 0
0.3125 0 0
0.28125 0.03125 0
0.3125 0.03125 0
0.25 0.03125 0
0.28125 0.03125 0
0.25 0.0625 0
0.28125 0.0625 0
0.28125 0.03125 0
0.3125 0.03125 0
0.28125 0.0625 0
0.3125 0.0625 0
0.3125 0 0
0.34375 0 0
0.3125 0.03125 0
0.34375 0.03125 0
0.34375 0 0
0.375 0 0
0.34375 0.03125 0
0.375 0.03125 0
0.3125 0.03125 0
0.34375 0.03125 0
0.3125 0.0625 0
0.34375 0.0625 0
0.34375 0.03125 0
0.375 0.03125 0
0.34375 0.0625 0
0.375 0.0625 0
0.25 0.0625 0
0.28125 0.0625 0
0.25 0.09375 0
0.28125 0.09375 0
0.28125 0.0625 0
0.3125 0.0625 0
0.28125 0.09375 0
0.3125 0.09375 0
0.25 0.09375 0
0.28125 0.09375 0
0.25 0.125 0
0.28125 0.125 0
0.28125 0.09375 0
0.3125 0.09375 0
0.28125 0.125 0
0.3125 0.125 0
0.3125 0.0625 0
0.34375 0.0625 0
0.3125 0.09375 0
0.34375 0.09375 0
0.34375 0.0625 0
0.375 0.0625 0
0.34375 0.09375 0
0.375 0.09375 0
0.3125 0.09375 0
0.34375 0.09375 0
0.3125 0.125 0
0.34375 0.125 0
0.34375 0.09375 0
0.375 0.09375 0
0.34375 0.125 0
0.375 0.125 0
0.375 0 0
0.40625 0 0
0.375 0.03125 0
0.40625 0.03125 0
0.40625 0 0
0.4375 0 0
0.40625 0.03125 0
0.4375 0.03125 0
0.375 0.03125 0
0.40625 0.03125 0
0.375 0.0625 0
0.40625 0.0625 0
0.40625 0.03125 0
0.4375 0.03125 0
0.40625 0.0625 0
0.4375 0.0625 0
0.4375 0 0
0.46875 0 0
0.4375 0.03125 0
0.46875 0.03125 0
0.46875 0 0
0.5 0 0
0.46875 0.03125 0
0.5 0.03125 0
0.4375 0.03125 0
0.46875 0.03125 0
0.4375 0.0625 0
0.46875 0.0625 0
0.46875 0.03125 0
0.5 0.03125 0
0.46875 0.0625 0
0.5 0.0625 0
0.375 0.0625 0
0.40625 0.0625 0
0.375 0.09375 0
0.40625 0.09375 0
0.40625 0.0625 0
0.4375 0.0625 0
0.40625 0.09375 0
0.4375 0.09375 0
0.375 0.09375 0
0.40625 0.09375 0
0.375 0.125 0
0.40625 0.125 0
0.40625 0.09375 0
0.4375 0.09375 0
0.40625 0.125 0
0.4375 0.125 0
0.4375 0.0625 0
0.46875 0.0625 0
0.4375 0.09375 0
0.46875 0.09375 0
0.46875 0.0625 0
0.5 0.0625 0
0.46875 0.09375 0
0.5 0.09375 0
0.4375 0.09375 0
0.46875 0.09375 0
0.4375 0.125 0
0.46875 0.125 0
0.46875 0.09375 0
0.5 0.09375 0
0.46875 0.125 0
0.5 0.125 0
0.25 0.125 0
0.28125 0.125 0
0.25 0.15625 0
0.28125 0.15625 0
0.28125 0.125 0
0.3125 0.125 0
0.28125 0.15625 0
0.3125 0.15625 0
0.25 0.15625 0
0.28125 0.15625 0
0.25 0.1875 0
0.28125 0.1875 0
0.28125 0.15625 0
0.3125 0.15625 0
0.28125 0.1875 0
0.3125 0.1875 0
0.3125 0.125 0
0.34375 0.125 0
0.3125 0.15625 0
0.34375 0.15625 0
0.34375 0.125 0
0.375 0.125 0
0.34375 0.15625 0
0.375 0.15625 0
0.3125 0.15625 0
0.34375 0.15625 0
0.3125 0.1875 0
0.34375 0.1875 0
0.34375 0.15625 0
0.375 0.15625 0
0.34375 0.1875 0
0.375 0.1875 0
0.25 0.1875 0
0.28125 0.1875 0
0.25 0.21875 0
0.28125 0.21875 0
0.28125 0.1875 0
0.3125 0.1875 0
0.28125 0.21875 0
0.3125 0.21875 0
0.25 0.21875 0
0.28125 0.21875 0
0.25 0.25 0
0.28125 0.25 0
0.28125 0.21875 0
0.3125 0.21875 0
0.28125 0.25 0
0.3125 0.25 0
0.3125 0.1875 0
0.34375 0.1875 0
0.3125 0.21875 0
0.34375 0.21875 0
0.34375 0.1875 0
0.375 0.1875 0
0.34375 0.21875 0
0.375 0.21875 0
0.3125 0.21875 0
0.34375 0.21875 0
0.3125 0.25 0
0.34375 0.25 0
0.34375 0.21875 0
0.375 0.21875 0
0.34375 0.25 0
0.375 0.25 0
0.375 0.125 0
0.40625 0.125 0
0.375 0.15625 0
0.40625 0.15625 0
0.40625 0.125 0
0.4375 0.125 0
0.40625 0.15625 0
0.4375 0.15625 0
0.375 0.15625 0
0.40625 0.15625 0
0.375 0.1875 0
0.40625 0.1875 0
0.40625 0.15625 0
0.4375 0.15625 0
0.40625 0.1875 0
0.4375 0.1875 0
0.4375 0.125 0
0.46875 0.125 0
0.4375 0.15625 0
0.46875 0.15625 0
0.46875 0.125 0
0.5 0.125 0
0.46875 0.15625 0
0.5 0.15625 0
0.4375 0.15625 0
0.46875 0.15625 0
0.4375 0.1875 0
0.46875 0.1875 0
0.46875 0.15625 0
0.5 0.15625 0
0.46875 0.1875 0
0.5 0.1875 0
0.375 0.1875 0
0.40625 0.1875 0
0.375 0.21875 0
0.40625 0.21875 0
0.40625 0.1875 0
0.4375 0.1875 0
0.40625 0.21875 0
0.4375 0.21875 0
0.375 0.21875 0
0.40625 0.21875 0
0.375 0.25 0
0.40625 0.25 0
0.40625 0.21875 0
0.4375 0.21875 0
0.40625 0.25 0
0.4375 0.25 0
0.4375 0.1875 0
0.46875 0.1875 0
0.4375 0.21875 0
0.46875 0.21875 0
0.46875 0.1875 0
0.5 0.1875 0
0.46875 0.21875 0
0.5 0.21875 0
0.4375 0.21875 0
0.46875 0.21875 0
0.4375 0.25 0
0.46875 0.25 0
0.46875 0.21875 0
0.5 0.21875 0
0.46875 0.25 0
0.5 0.25 0
0 0.25 0
0.03125 0.25 0
0 0.28125 0
0.03125 0.28125 0
0.03125 0.25 0
0.0625 0.25 0
0.03125 0.28125 0
0.0625 0.28125 0
0 0.28125 0
0.03125 0.28125 0
0 0.3125 0
0.03125 0.3125 0
0.03125 0.28125 0
0.0625 0.28125 0
0.03125 0.3125 0
0.0625 0.3125 0
0.0625 0.25 0
0.09375 0.25 0
0.0625 0.28125 0
0.09375 0.28125 0
0.09375 0.25 0
0.125 0.25 0
0.09375 0.28125 0
0.125 0.28125 0
0.0625 0.28125 0
0.09375 0.28125 0
0.0625 0.3125 0
0.09375 0.3125 0
0.09375 0.28125 0
0.125 0.28125 0
0.09375 0.3125 0
0.125 0.3125 0
0 0.3125 0
0.03125 0.3125 0
0 0.34375 0
0.03125 0.34375 0
0.03125 0.3125 0
0.0625 0.3125 0
0.03125 0.34375 0
0.0625 0.34375 0
0 0.34375 0
0.03125 0.34375 0
0 0.375 0
0.03125 0.375 0
0.03125 0.34375 0
0.0625 0.34375 0
0.03125 0.375 0
0.0625 0.375 0
0.0625 0.3125 0
0.09375 0.3125 0
0.0625 0.34375 0
0.09375 0.34375 0
0.09375 0.3125 0
0.125 0.3125 0
0.09375 0.34375 0
0.125 0.34375 0
0.0625 0.34375 0
0.09375 0.34375 0
0.0625 0.375 0
0.09375 0.375 0
0.09375 0.34375 0
0.125 0.34375 0
0.09375 0.375 0
0.125 0.375 0
0.125 0.25 0
0.15625 0.25 0
0.125 0.28125 0
0.15625 0.28125 0
0.15625 0.25 0
0.1875 0.25 0
0.15625 0.28125 0
0.1875 0.28125 0
0.125 0.28125 0
0.15625 0.28125 0
0.125 0.3125 0
0.15625 0.3125 0
0.15625 0.28125 0
0.1875 0.28125 0
0.15625 0.3125 0
0.1875 0.3125 0
0.1875 0.25 0
0.21875 0.25 0
0.1875 0.28125 0
0.21875 0.28125 0
0.21875 0.25 0
0.25 0.25 0
0.21875 0.28125 0
0.25 0.28125 0
0.1875 0.28125 0
0.21875 0.28125 0
0.1875 0.3125 0
0.21875 0.3125 0
0.21875 0.28125 0
0.25 0.28125 0
0.21875 0.3125 0
0.25 0.3125 0
0.125 0.3125 0
0.15625 0.3125 0
0.125 0.34375 0
0.15625 0.34375 0
0.15625 0.3125 0
0.1875 0.3125 0
0.15625 0.34375 0
0.1875 0.34375 0
0.125 0.34375 0
[...]
POINT_DATA 4096
SCALARS p double 1
LOOKUP_TABLE default
-1.05508e-05 7.2861e-05 -0.000100452 -1.80367e-05 7.2861e-05 0.000317914 -1.80367e-05 0.000115291 -0.000100452 -1.80367e-05 -0.000347835 -0.00014978 -1.80367e-05 0.000115291 -0.00014978 -1.35993e-05 0.000317914 0.000573162 0.000115291 0.000254871 0.000573162 0.000743634 0.000254871 0.000340148 0.000115291 0.000254871 -1.35993e-05 0.000116669 0.000254871 0.000340148 0.000116669 0.000180325 -0.000347835 -0.00014978 -0.000613003 -0.000290568 -0.00014978 -1.35993e-05 -0.000290568 -0.000136854 -0.000613003 -0.000290568 -0.000802707 -0.000378357 -0.000290568 -0.000136854 -0.000378357 -0.000190757 -1.35993e-05 0.000116669 -0.000136854 -1.69324e-06 0.000116669 0.000180325 -1.69324e-06 5.11797e-05 -0.000136854 -1.69324e-06 -0.000190757 -3.2987e-05 -1.69324e-06 5.11797e-05 -3.2987e-05 2.56543e-05 0.000743634 0.000786561 0.000340148 0.00034274 0.000786561 0.000688082 0.00034274 0.000248231 0.000340148 0.00034274 0.000180325 0.000161445 0.00034274 0.000248231 0.000161445 4.6475e-05 0.000688082 0.000447906 0.000248231 5.24259e-05 0.000447906 7.22563e-05 5.24259e-05 -0.000243394 0.000248231 5.24259e-05 4.6475e-05 -0.000169546 5.24259e-05 -0.000243394 -0.000169546 -0.000486913 0.000180325 0.000161445 5.11797e-05 2.2474e-05 0.000161445 4.6475e-05 2.2474e-05 -9.65243e-05 5.11797e-05 2.2474e-05 2.56543e-05 -2.94791e-06 2.2474e-05 -9.65243e-05 -2.94791e-06 -0.000123119 4.6475e-05 -0.000169546 -9.65243e-05 -0.000308753 -0.000169546 -0.000486913 -0.000308753 -0.000614598 -9.65243e-05 -0.000308753 -0.000123119 -0.00033523 -0.000308753 -0.000614598 -0.00033523 -0.000638798 -0.000802707 -0.000378357 -0.000870671 -0.000380142 -0.000378357 -0.000190757 -0.000380142 -0.000152779 -0.000870671 -0.000380142 -0.000795543 -0.000274926 -0.000380142 -0.000152779 -0.000274926 -1.25324e-06 -0.000190757 -3.2987e-05 -0.000152779 3.00268e-05 -3.2987e-05 2.56543e-05 3.00268e-05 0.000101024 -0.000152779 3.00268e-05 -1.25324e-06 0.000204945 3.00268e-05 0.000101024 0.000204945 0.000291203 -0.000795543 -0.000274926 -0.000566409 -4.95529e-05 -0.000274926 -1.25324e-06 -4.95529e-05 0.000279073 -0.000566409 -4.95529e-05 -0.000176349 0.000305516 -4.95529e-05 0.000279073 0.000305516 0.000700594 -1.25324e-06 0.000204945 0.000279073 0.000505329 0.000204945 0.000291203 0.000505329 0.000607606 0.000279073 0.000505329 0.000700594 0.000943711 0.000505329 0.000607606 0.000943711 0.0010621 2.56543e-05 -2.94791e-06 0.000101024 7.78967e-05 -2.94791e-06 -0.000123119 7.78967e-05 -4.0058e-05 0.000101024 7.78967e-05 0.000291203 0.000275868 7.78967e-05 -4.0058e-05 0.000275868 0.000161153 -0.000123119 -0.00033523 -4.0058e-05 -0.000250964 -0.00033523 -0.000638798 -0.000250964 -0.000553245 -4.0058e-05 -0.000250964 0.000161153 -4.94377e-05 -0.000250964 -0.000553245 -4.94377e-05 -0.000353346 0.000291203 0.000275868 0.000607606 0.000600364 0.000275868 0.000161153 0.000600364 0.000488457 0.000607606 0.000600364 0.0010621 0.00106222 0.000600364 0.000488457 0.00106222 0.000951705 0.000161153 -4.94377e-05 0.000488457 0.000276432 -4.94377e-05 -0.000353346 0.000276432 -3.23526e-05 0.000488457 0.000276432 0.000951705 0.000735763 0.000276432 -3.23526e-05 0.000735763 0.000418382 7.22563e-05 -0.000429913 -0.000243394 -0.000634821 -0.000429913 -0.00104863 -0.000634821 -0.00111572 -0.000243394 -0.000634821 -0.000486913 -0.000902589 -0.000634821 -0.00111572 -0.000902589 -0.00141141 -0.00104863 -0.00177343 -0.00111572 -0.00167886 -0.00177343 -0.00259335 -0.00167886 -0.0023161 -0.00111572 -0.00167886 -0.00141141 -0.00200666 -0.00167886 -0.0023161 -0.00200666 -0.0026803 -0.000486913 -0.000902589 -0.000614598 -0.00101192 -0.000902589 -0.00141141 -0.00101192 -0.00149671 -0.000614598 -0.00101192 -0.000638798 -0.0010317 -0.00101192 -0.00149671 -0.0010317 -0.00151045 -0.00141141 -0.00200666 -0.00149671 -0.00206342 -0.00200666 -0.0026803 -0.00206342 -0.00270507 -0.00149671 -0.00206342 -0.00151045 -0.00207015 -0.00206342 -0.00270507 -0.00207015 -0.0027045 -0.00259335 -0.00349658 -0.0023161 -0.00301837 -0.00349658 -0.00447017 -0.00301837 -0.00377543 -0.0023161 -0.00301837 -0.0026803 -0.003423 -0.00301837 -0.00377543 -0.003423 -0.00422409 -0.00447017 -0.00549969 -0.00377543 -0.00457583 -0.00549969 -0.00656907 -0.00457583 -0.00540683 -0.00377543 -0.00457583 -0.00422409 -0.0050714 -0.00457583 -0.00540683 -0.0050714 -0.00595132 -0.0026803 -0.003423 -0.00270507 -0.00341323 -0.003423 -0.00422409 -0.00341323 -0.004178 -0.00270507 -0.00341323 -0.0027045 -0.00340565 -0.00341323 -0.004178 -0.00340565 -0.00416422 -0.00422409 -0.0050714 -0.004178 -0.00498794 -0.0050714 -0.00595132 -0.00498794 -0.00583009 -0.004178 -0.00498794 -0.00416422 -0.00496916 -0.00498794 -0.00583009 -0.00496916 -0.00580779 -0.000638798 -0.0010317 -0.000553245 -0.000944512 -0.0010317 -0.00151045 -0.000944512 -0.0014215 -0.000553245 -0.000944512 -0.000353346 -0.000747856 -0.000944512 -0.0014215 -0.000747856 -0.00122979 -0.00151045 -0.00207015 -0.0014215 -0.00197978 -0.00207015 -0.0027045 -0.00197978 -0.00261358 -0.0014215 -0.00197978 -0.00122979 -0.001795 -0.00197978 -0.00261358 -0.001795 -0.00243814 -0.000353346 -0.000747856 -3.23526e-05 -0.000434891 -0.000747856 -0.00122979 -0.000434891 -0.000928044 -3.23526e-05 -0.000434891 0.000418382 2.76096e-06 -0.000434891 -0.000928044 2.76096e-06 -0.000508038 -0.00122979 -0.001795 -0.000928044 -0.00150798 -0.001795 -0.00243814 -0.00150798 -0.00216975 -0.000928044 -0.00150798 -0.000508038 -0.0011105 -0.00150798 -0.00216975 -0.0011105 -0.00180009 -0.0027045 -0.00340565 -0.00261358 -0.00331564 -0.00340565 -0.00416422 -0.00331564 -0.00407701 -0.00261358 -0.00331564 -0.00243814 -0.00315242 -0.00331564 -0.00407701 -0.00315242 -0.0039293 -0.00416422 -0.00496916 -0.00407701 -0.00488701 -0.00496916 -0.00580779 -0.00488701 -0.00573318 -0.00407701 -0.00488701 -0.0039293 -0.00475835 -0.00488701 -0.00573318 -0.00475835 -0.00562725 -0.00243814 -0.00315242 -0.00216975 -0.00290692 -0.00315242 -0.0039293 -0.00290692 -0.00371132 -0.00216975 -0.00290692 -0.00180009 -0.00257077 -0.00290692 -0.00371132 -0.00257077 -0.00341476 -0.0039293 -0.00475835 -0.00371132 -0.00457278 -0.00475835 -0.00562725 -0.00457278 -0.00547897 -0.00371132 -0.00457278 -0.00341476 -0.0043221 -0.00457278 -0.00547897 -0.0043221 -0.00528045 -0.000176349 0.000305516 0.000381175 0.000798862 0.000305516 0.000700594 0.000798862 0.00127477 0.000381175 0.000798862 0.0011143 0.00143968 0.000798862 0.00127477 0.00143968 0.00201348 0.000700594 0.000943711 0.00127477 0.00153223 0.000943711 0.0010621 0.00153223 0.0016668 0.00127477 0.00153223 0.00201348 0.00228357 0.00153223 0.0016668 0.00228357 0.00243477 0.0011143 0.00143968 0.00203383 0.00223876 0.00143968 0.00201348 0.00223876 0.00293013 0.00203383 0.00223876 0.00315375 0.00320921 0.00223876 0.00293013 0.00320921 0.00404047 0.00201348 0.00228357 0.00293013 0.00321195 0.00228357 0.00243477 0.00321195 0.00338081 0.00293013 0.00321195 0.00404047 0.00433382 0.00321195 0.00338081 0.00433382 0.00452193 0.0010621 0.00106222 0.0016668 0.00167312 0.00106222 0.000951705 0.00167312 0.00156211 0.0016668 0.00167312 0.00243477 0.00244618 0.00167312 0.00156211 0.00244618 0.00233272 0.000951705 0.000735763 0.00156211 0.0013394 0.000735763 0.000418382 0.0013394 0.0010095 0.00156211 0.0013394 0.00233272 0.00210031 0.0013394 0.0010095 0.00210031 0.00175401 0.00243477 0.00244618 0.00338081 0.00339641 0.00244618 0.00233272 0.00339641 0.00327865 0.00338081 0.00339641 0.00452193 0.00454111 0.00339641 0.00327865 0.00454111 0.00441746 0.00233272 0.00210031 0.00327865 0.0030338 0.00210031 0.00175401 0.0030338 0.00266754 0.00327865 0.0030338 0.00441746 0.00415773 0.0030338 0.00266754 0.00415773 0.00376841 0.00315375 0.00320921 0.00449152 0.004367 0.00320921 0.00404047 0.004367 0.00536336 0.00449152 0.004367 0.00606853 0.00573139 0.004367 0.00536336 0.00573139 0.00692136 0.00404047 0.00433382 0.00536336 0.0056686 0.00433382 0.00452193 0.0056686 0.00587808 0.00536336 0.0056686 0.00692136 0.00723936 0.0056686 0.00587808 0.00723936 0.00747278 0.00606853 0.00573139 0.00791056 0.00732572 0.00573139 0.00692136 0.00732572 0.00874172 0.00791056 0.00732572 0.0100486 0.00917834 0.00732572 0.00874172 0.00917834 0.0108575 0.00692136 0.00723936 0.00874172 0.00907373 0.00723936 0.00747278 0.00907373 0.00933388 0.00874172 0.00907373 0.0108575 0.0112049 0.00907373 0.00933388 0.0112049 0.0114944 0.00452193 0.00454111 0.00587808 0.00590054 0.00454111 0.00441746 0.00590054 0.00576964 0.00587808 0.00590054 0.00747278 0.00749831 0.00590054 0.00576964 0.00749831 0.00735892 0.00441746 0.00415773 0.00576964 0.00549293 0.00415773 0.00376841 0.00549293 0.00507797 0.00576964 0.00549293 0.00735892 0.00706336 0.00549293 0.00507797 0.00706336 0.00662069 0.00747278 0.00749831 0.00933388 0.00936212 0.00749831 0.00735892 0.00936212 0.0092128 0.00933388 0.00936212 0.0114944 0.0115243 0.00936212 0.0092128 0.0115243 0.0113629 0.00735892 0.00706336 0.0092128 0.00889649 0.00706336 0.00662069 0.00889649 0.0084243 0.0092128 0.00889649 0.0113629 0.0110234 0.00889649 0.0084243 0.0110234 0.0105197 0.000418382 2.76096e-06 0.0010095 0.000575733 2.76096e-06 -0.000508038 0.000575733 4.10096e-05 0.0010095 0.000575733 0.00175401 0.00129724 0.000575733 4.10096e-05 0.00129724 0.000732687 -0.000508038 -0.0011105 4.10096e-05 -0.000591489 -0.0011105 -0.00180009 -0.000591489 -0.00131772 4.10096e-05 -0.000591489 0.000732687 6.30988e-05 -0.000591489 -0.00131772 6.30988e-05 -0.000708075 0.00175401 0.00129724 0.00266754 0.00218337 0.00129724 0.000732687 0.00218337 0.00158369 0.00266754 0.00218337 0.00376841 0.0032531 0.00218337 0.00158369 0.0032531 0.00261392 0.000732687 6.30988e-05 0.00158369 0.000870724 6.30988e-05 -0.000708075 0.000870724 4.71517e-05 0.00158369 0.000870724 0.00261392 0.00185234 0.000870724 4.71517e-05 0.00185234 0.000970096 -0.00180009 -0.00257077 -0.00131772 -0.00213219 -0.00257077 -0.00341476 -0.00213219 -0.00302754 -0.00131772 -0.00213219 -0.000708075 -0.00157603 -0.00213219 -0.00302754 -0.00157603 -0.00253404 -0.00341476 -0.0043221 -0.00302754 -0.00399412 -0.0043221 -0.00528045 -0.00399412 -0.00501961 -0.00302754 -0.00399412 -0.00253404 -0.00357291 -0.00399412 -0.00501961 -0.00357291 -0.00468052 -0.000708075 -0.00157603 4.71517e-05 -0.000883125 -0.00157603 -0.00253404 -0.000883125 -0.00191426 4.71517e-05 -0.000883125 0.000970096 -3.00809e-05 -0.000883125 -0.00191426 -3.00809e-05 -0.00114357 -0.00253404 -0.00357291 -0.00191426 -0.00303786 -0.00357291 -0.00468052 -0.00303786 -0.00424225 -0.00191426 -0.00303786 -0.00114357 -0.00236316 -0.00303786 -0.00424225 -0.00236316 -0.00367815 0.00376841 0.0032531 0.00507797 0.0045286 0.0032531 0.00261392 0.0045286 0.00384653 0.00507797 0.0045286 0.00662069 0.00603512 0.0045286 0.00384653 0.00603512 0.00530801 0.00261392 0.00185234 0.00384653 0.00303243 0.00185234 0.000970096 0.00303243 0.00208683 0.00384653 0.00303243 0.00530801 0.00443906 0.00303243 0.00208683 0.00443906 0.00342736 0.00662069 0.00603512 0.0084243 0.00780108 0.00603512 0.00530801 0.00780108 0.00702792 0.0084243 0.00780108 0.0105197 0.00985775 0.00780108 0.00702792 0.00985775 0.00903845 0.00530801 0.00443906 0.00702792 0.00610347 0.00443906 0.00342736 0.00610347 0.00502516 0.00702792 0.00610347 0.00903845 0.00805942 0.00610347 0.00502516 0.00805942 0.00691639 0.000970096 -3.00809e-05 0.00208683 0.00101098 -3.00809e-05 -0.00114357 0.00101098 -0.000192187 0.00208683 0.00101098 0.00342736 0.00227235 0.00101098 -0.000192187 0.00227235 0.000974798 -0.00114357 -0.00236316 -0.000192187 -0.00151718 -0.00236316 -0.00367815 -0.00151718 -0.00295489 -0.000192187 -0.00151718 0.000974798 -0.000462182 -0.00151718 -0.00295489 -0.000462182 -0.00203194 0.00342736 0.00227235 0.00502516 0.00379034 0.00227235 0.000974798 0.00379034 0.00239714 0.00502516 0.00379034 0.00691639 0.00560436 0.00379034 0.00239714 0.00560436 0.00411842 0.000974798 -0.000462182 0.00239714 0.000845561 -0.000462182 -0.00203194 0.000845561 -0.000861214 0.00239714 0.000845561 0.00411842 0.00245484 0.000845561 -0.000861214 0.00245484 0.000612232 -0.00656907 -0.00766051 -0.00540683 -0.0062543 -0.00766051 -0.00875447 -0.0062543 -0.00710286 -0.00540683 -0.0062543 -0.00595132 -0.00684876 -0.0062543 -0.00710286 -0.00684876 -0.00774727 -0.00875447 -0.00982987 -0.00710286 -0.00793598 -0.00982987 -0.0108643 -0.00793598 -0.00873626 -0.00710286 -0.00793598 -0.00774727 -0.00862923 -0.00793598 -0.00873626 -0.00862923 -0.0094762 -0.00595132 -0.00684876 -0.00583009 -0.00668997 -0.00684876 -0.00774727 -0.00668997 -0.00755178 -0.00583009 -0.00668997 -0.00580779 -0.00666577 -0.00668997 -0.00755178 -0.00666577 -0.00752731 -0.00774727 -0.00862923 -0.00755178 -0.00839849 -0.00862923 -0.0094762 -0.00839849 -0.00921228 -0.00755178 -0.00839849 -0.00752731 -0.00837531 -0.00839849 -0.00921228 -0.00837531 -0.00919173 -0.0108643 -0.0118346 -0.00873626 -0.00948583 -0.0118346 -0.0127172 -0.00948583 -0.0101669 -0.00873626 -0.00948583 -0.0094762 -0.0102693 -0.00948583 -0.0101669 -0.0102693 -0.01099 -0.0127172 -0.0134886 -0.0101669 -0.0107622 -0.0134886 -0.014127 -0.0107622 -0.0112562 -0.0101669 -0.0107622 -0.01099 -0.0116207 -0.0107622 -0.0112562 -0.0116207 -0.0121457 -0.0094762 -0.0102693 -0.00921228 -0.00997499 -0.0102693 -0.01099 -0.00997499 -0.0106687 -0.00921228 -0.00997499 -0.00919173 -0.00995815 -0.00997499 -0.0106687 -0.00995815 -0.0106564 -0.01099 -0.0116207 -0.0106687 -0.0112767 -0.0116207 -0.0121457 -0.0112767 -0.0117844 -0.0106687 -0.0112767 -0.0106564 -0.0112693 -0.0112767 -0.0117844 -0.0112693 -0.0117819 -0.00580779 -0.00666577 -0.00573318 -0.00660124 -0.00666577 -0.00752731 -0.00660124 -0.00747524 -0.00573318 -0.00660124 -0.00562725 -0.00652157 -0.00660124 -0.00747524 -0.00652157 -0.00742497 -0.00752731 -0.00837531 -0.00747524 -0.00833773 -0.00837531 -0.00919173 -0.00833773 -0.00917013 -0.00747524 -0.00833773 -0.00742497 -0.0083193 -0.00833773 -0.00917013 -0.0083193 -0.00918506 -0.00562725 -0.00652157 -0.00547897 -0.00641523 -0.00652157 -0.00742497 -0.00641523 -0.00736461 -0.00547897 -0.00641523 -0.00528045 -0.00627482 -0.00641523 -0.00736461 -0.00627482 -0.0072875 -0.00742497 -0.0083193 -0.00736461 -0.00830799 -0.0083193 -0.00918506 -0.00830799 -0.00922448 -0.00736461 -0.00830799 -0.0072875 -0.00829815 -0.00830799 -0.00922448 -0.00829815 -0.00928411 -0.00919173 -0.00995815 -0.00917013 -0.0099533 -0.00995815 -0.0106564 -0.0099533 -0.0106682 -0.00917013 -0.0099533 -0.00918506 -0.0100019 -0.0099533 -0.0106682 -0.0100019 -0.0107491 -0.0106564 -0.0112693 -0.0106682 -0.0112967 -0.0112693 -0.0117819 -0.0112967 -0.0118228 -0.0106682 -0.0112967 -0.0107491 -0.0114071 -0.0112967 -0.0118228 -0.0114071 -0.0119581 -0.00918506 -0.0100019 -0.00922448 -0.0100919 -0.0100019 -0.0107491 -0.0100919 -0.0108876 -0.00922448 -0.0100919 -0.00928411 -0.0102208 -0.0100919 -0.0108876 -0.0102208 -0.011083 -0.0107491 -0.0114071 -0.0108876 -0.0115896 -0.0114071 -0.0119581 -0.0115896 -0.0121778 -0.0108876 -0.0115896 -0.011083 -0.0118453 -0.0115896 -0.0121778 -0.0118453 -0.0124848 -0.014127 -0.0146129 -0.0112562 -0.0116359 -0.0146129 -0.0149309 -0.0116359 -0.011893 -0.0112562 -0.0116359 -0.0121457 -0.0125527 -0.0116359 -0.011893 -0.0125527 -0.0128344 -0.0149309 -0.0150746 -0.011893 -0.0120228 -0.0150746 -0.0150411 -0.0120228 -0.0120441 -0.011893 -0.0120228 -0.0128344 -0.0129882 -0.0120228 -0.0120441 -0.0129882 -0.013031 -0.0121457 -0.0125527 -0.0117844 -0.0121802 -0.0125527 -0.0128344 -0.0121802 -0.0124576 -0.0117844 -0.0121802 -0.0117819 -0.0121824 -0.0121802 -0.0124576 -0.0121824 -0.0124636 -0.0128344 -0.0129882 -0.0124576 -0.0126139 -0.0129882 -0.013031 -0.0126139 -0.0126647 -0.0124576 -0.0126139 -0.0124636 -0.0126219 -0.0126139 -0.0126647 -0.0126219 -0.0126704 -0.0150411 -0.0148859 -0.0120441 -0.0119138 -0.0148859 -0.0146116 -0.0119138 -0.0120007 -0.0120441 -0.0119138 -0.013031 -0.0129281 -0.0119138 -0.0120007 -0.0129281 -0.0130088 -0.0146116 -0.0136649 -0.0120007 -0.0106961 -0.0136649 -0.0148747 -0.0106961 -0.0134805 -0.0120007 -0.0106961 -0.0130088 -0.0117153 -0.0106961 -0.0134805 -0.0117153 -0.0139 -0.013031 -0.0129281 -0.0126647 -0.012568 -0.0129281 -0.0130088 -0.012568 -0.0126519 -0.0126647 -0.012568 -0.0126704 -0.0125645 -0.012568 -0.0126519 -0.0125645 -0.0126184 -0.0130088 -0.0117153 -0.0126519 -0.0113235 -0.0117153 -0.0139 -0.0113235 -0.0136136 -0.0126519 -0.0113235 -0.0126184 -0.011259 -0.0113235 -0.0136136 -0.011259 -0.0133742 -0.0117819 -0.0121824 -0.0118228 -0.0122336 -0.0121824 -0.0124636 -0.0122336 -0.0125209 -0.0118228 -0.0122336 -0.0119581 -0.0123877 -0.0122336 -0.0125209 -0.0123877 -0.0126859 -0.0124636 -0.0126219 -0.0125209 -0.0126795 -0.0126219 -0.0126704 -0.0126795 -0.0127207 -0.0125209 -0.0126795 -0.0126859 -0.0128461 -0.0126795 -0.0127207 -0.0128461 -0.0128785 -0.0119581 -0.0123877 -0.0121778 -0.0126354 -0.0123877 -0.0126859 -0.0126354 -0.0129506 -0.0121778 -0.0126354 -0.0124848 -0.0129816 -0.0126354 -0.0129506 -0.0129816 -0.0133217 -0.0126859 -0.0128461 -0.0129506 -0.0131155 -0.0128461 -0.0128785 -0.0131155 -0.0131394 -0.0129506 -0.0131155 -0.0133217 -0.0134956 -0.0131155 -0.0131394 -0.0134956 -0.0135128 -0.0126704 -0.0125645 -0.0127207 -0.0125974 -0.0125645 -0.0126184 -0.0125974 -0.0126198 -0.0127207 -0.0125974 -0.0128785 -0.0127345 -0.0125974 -0.0126198 -0.0127345 -0.0127251 -0.0126184 -0.011259 -0.0126198 -0.0112172 -0.011259 -0.0133742 -0.0112172 -0.0132725 -0.0126198 -0.0112172 -0.0127251 -0.0112757 -0.0112172 -0.0132725 -0.0112757 -0.0132866 -0.0128785 -0.0127345 -0.0131394 -0.0129736 -0.0127345 -0.0127251 -0.0129736 -0.0129338 -0.0131394 -0.0129736 -0.0135128 -0.0133241 -0.0129736 -0.0129338 -0.0133241 -0.0132546 -0.0127251 -0.0112757 -0.0129338 -0.0114291 -0.0112757 -0.0132866 -0.0114291 -0.0134249 -0.0129338 -0.0114291 -0.0132546 -0.011683 -0.0114291 -0.0134249 -0.011683 -0.0136841 -0.00528045 -0.00627482 -0.00501961 -0.0060887 -0.00627482 -0.0072875 -0.0060887 -0.00718284 -0.00501961 -0.0060887 -0.00468052 -0.00584133 -0.0060887 -0.00718284 -0.00584133 -0.00703598 -0.0072875 -0.00829815 -0.00718284 -0.00828024 -0.00829815 -0.00928411 -0.00828024 -0.00935605 -0.00718284 -0.00828024 -0.00703598 -0.0082411 -0.00828024 -0.00935605 -0.0082411 -0.00942933 -0.00468052 -0.00584133 -0.00424225 -0.00551194 -0.00584133 -0.00703598 -0.00551194 -0.00682695 -0.00424225 -0.00551194 -0.00367815 -0.00507354 -0.00551194 -0.00682695 -0.00507354 -0.00652913 -0.00703598 -0.0082411 -0.00682695 -0.00816233 -0.0082411 -0.00942933 -0.00816233 -0.00948805 -0.00682695 -0.00816233 -0.00652913 -0.00801873 -0.00816233 -0.00948805 -0.00801873 -0.00950956 -0.00928411 -0.0102208 -0.00935605 -0.0103829 -0.0102208 -0.011083 -0.0103829 -0.0113317 -0.00935605 -0.0103829 -0.00942933 -0.0105698 -0.0103829 -0.0113317 -0.0105698 -0.0116291 -0.011083 -0.0118453 -0.0113317 -0.0121736 -0.0118453 -0.0124848 -0.0121736 -0.0128811 -0.0113317 -0.0121736 -0.0116291 -0.0125732 -0.0121736 -0.0128811 -0.0125732 -0.0133692 -0.00942933 -0.0105698 -0.00948805 -0.0107692 -0.0105698 -0.0116291 -0.0107692 -0.0119669 -0.00948805 -0.0107692 -0.00950956 -0.0109622 -0.0107692 -0.0119669 -0.0109622 -0.0123315 -0.0116291 -0.0125732 -0.0119669 -0.0130407 -0.0125732 -0.0133692 -0.0130407 -0.0139508 -0.0119669 -0.0130407 -0.0123315 -0.0135689 -0.0130407 -0.0139508 -0.0135689 -0.0146254 -0.00367815 -0.00507354 -0.00295489 -0.00449159 -0.00507354 -0.00652913 -0.00449159 -0.00610761 -0.00295489 -0.00449159 -0.00203194 -0.00372304 -0.00449159 -0.00610761 -0.00372304 -0.00551751 -0.00652913 -0.00801873 -0.00610761 -0.00777614 -0.00801873 -0.00950956 -0.00777614 -0.00946205 -0.00610761 -0.00777614 -0.00551751 -0.00738912 -0.00777614 -0.00946205 -0.00738912 -0.00930133 -0.00203194 -0.00372304 -0.000861214 -0.00271537 -0.00372304 -0.00551751 -0.00271537 -0.0047023 -0.000861214 -0.00271537 0.000612232 -0.00140676 -0.00271537 -0.0047023 -0.00140676 -0.00359304 -0.00551751 -0.00738912 -0.0047023 -0.00679823 -0.00738912 -0.00930133 -0.00679823 -0.00896713 -0.0047023 -0.00679823 -0.00359304 -0.00592801 -0.00679823 -0.00896713 -0.00592801 -0.00837927 -0.0095