# vtk DataFile Version 3.0
#This file was generated by the deal.II library on 2026/1/5 at 14:19:35
ASCII
DATASET UNSTRUCTURED_GRID

POINTS 4096 double
0 0 0
0.03125 0 0
0 0.03125 0
0.03125 0.03125 0
0.03125 0 0
0.0625 0 0
0.03125 0.03125 0
0.0625 0.03125 0
0 0.03125 0
0.03125 0.03125 0
0 0.0625 0
0.03125 0.0625 0
0.03125 0.03125 0
0.0625 0.03125 0
0.03125 0.0625 0
0.0625 0.0625 0
0.0625 0 0
0.09375 0 0
0.0625 0.03125 0
0.09375 0.03125 0
0.09375 0 0
0.125 0 0
0.09375 0.03125 0
0.125 0.03125 0
0.0625 0.03125 0
0.09375 0.03125 0
0.0625 0.0625 0
0.09375 0.0625 0
0.09375 0.03125 0
0.125 0.03125 0
0.09375 0.0625 0
0.125 0.0625 0
0 0.0625 0
0.03125 0.0625 0
0 0.09375 0
0.03125 0.09375 0
0.03125 0.0625 0
0.0625 0.0625 0
0.03125 0.09375 0
0.0625 0.09375 0
0 0.09375 0
0.03125 0.09375 0
0 0.125 0
0.03125 0.125 0
0.03125 0.09375 0
0.0625 0.09375 0
0.03125 0.125 0
0.0625 0.125 0
0.0625 0.0625 0
0.09375 0.0625 0
0.0625 0.09375 0
0.09375 0.09375 0
0.09375 0.0625 0
0.125 0.0625 0
0.09375 0.09375 0
0.125 0.09375 0
0.0625 0.09375 0
0.09375 0.09375 0
0.0625 0.125 0
0.09375 0.125 0
0.09375 0.09375 0
0.125 0.09375 0
0.09375 0.125 0
0.125 0.125 0
0.125 0 0
0.15625 0 0
0.125 0.03125 0
0.15625 0.03125 0
0.15625 0 0
0.1875 0 0
0.15625 0.03125 0
0.1875 0.03125 0
0.125 0.03125 0
0.15625 0.03125 0
0.125 0.0625 0
0.15625 0.0625 0
0.15625 0.03125 0
0.1875 0.03125 0
0.15625 0.0625 0
0.1875 0.0625 0
0.1875 0 0
0.21875 0 0
0.1875 0.03125 0
0.21875 0.03125 0
0.21875 0 0
0.25 0 0
0.21875 0.03125 0
0.25 0.03125 0
0.1875 0.03125 0
0.21875 0.03125 0
0.1875 0.0625 0
0.21875 0.0625 0
0.21875 0.03125 0
0.25 0.03125 0
0.21875 0.0625 0
0.25 0.0625 0
0.125 0.0625 0
0.15625 0.0625 0
0.125 0.09375 0
0.15625 0.09375 0
0.15625 0.0625 0
0.1875 0.0625 0
0.15625 0.09375 0
0.1875 0.09375 0
0.125 0.09375 0
0.15625 0.09375 0
0.125 0.125 0
0.15625 0.125 0
0.15625 0.09375 0
0.1875 0.09375 0
0.15625 0.125 0
0.1875 0.125 0
0.1875 0.0625 0
0.21875 0.0625 0
0.1875 0.09375 0
0.21875 0.09375 0
0.21875 0.0625 0
0.25 0.0625 0
0.21875 0.09375 0
0.25 0.09375 0
0.1875 0.09375 0
0.21875 0.09375 0
0.1875 0.125 0
0.21875 0.125 0
0.21875 0.09375 0
0.25 0.09375 0
0.21875 0.125 0
0.25 0.125 0
0 0.125 0
0.03125 0.125 0
0 0.15625 0
0.03125 0.15625 0
0.03125 0.125 0
0.0625 0.125 0
0.03125 0.15625 0
0.0625 0.15625 0
0 0.15625 0
0.03125 0.15625 0
0 0.1875 0
0.03125 0.1875 0
0.03125 0.15625 0
0.0625 0.15625 0
0.03125 0.1875 0
0.0625 0.1875 0
0.0625 0.125 0
0.09375 0.125 0
0.0625 0.15625 0
0.09375 0.15625 0
0.09375 0.125 0
0.125 0.125 0
0.09375 0.15625 0
0.125 0.15625 0
0.0625 0.15625 0
0.09375 0.15625 0
0.0625 0.1875 0
0.09375 0.1875 0
0.09375 0.15625 0
0.125 0.15625 0
0.09375 0.1875 0
0.125 0.1875 0
0 0.1875 0
0.03125 0.1875 0
0 0.21875 0
0.03125 0.21875 0
0.03125 0.1875 0
0.0625 0.1875 0
0.03125 0.21875 0
0.0625 0.21875 0
0 0.21875 0
0.03125 0.21875 0
0 0.25 0
0.03125 0.25 0
0.03125 0.21875 0
0.0625 0.21875 0
0.03125 0.25 0
0.0625 0.25 0
0.0625 0.1875 0
0.09375 0.1875 0
0.0625 0.21875 0
0.09375 0.21875 0
0.09375 0.1875 0
0.125 0.1875 0
0.09375 0.21875 0
0.125 0.21875 0
0.0625 0.21875 0
0.09375 0.21875 0
0.0625 0.25 0
0.09375 0.25 0
0.09375 0.21875 0
0.125 0.21875 0
0.09375 0.25 0
0.125 0.25 0
0.125 0.125 0
0.15625 0.125 0
0.125 0.15625 0
0.15625 0.15625 0
0.15625 0.125 0
0.1875 0.125 0
0.15625 0.15625 0
0.1875 0.15625 0
0.125 0.15625 0
0.15625 0.15625 0
0.125 0.1875 0
0.15625 0.1875 0
0.15625 0.15625 0
0.1875 0.15625 0
0.15625 0.1875 0
0.1875 0.1875 0
0.1875 0.125 0
0.21875 0.125 0
0.1875 0.15625 0
0.21875 0.15625 0
0.21875 0.125 0
0.25 0.125 0
0.21875 0.15625 0
0.25 0.15625 0
0.1875 0.15625 0
0.21875 0.15625 0
0.1875 0.1875 0
0.21875 0.1875 0
0.21875 0.15625 0
0.25 0.15625 0
0.21875 0.1875 0
0.25 0.1875 0
0.125 0.1875 0
0.15625 0.1875 0
0.125 0.21875 0
0.15625 0.21875 0
0.15625 0.1875 0
0.1875 0.1875 0
0.15625 0.21875 0
0.1875 0.21875 0
0.125 0.21875 0
0.15625 0.21875 0
0.125 0.25 0
0.15625 0.25 0
0.15625 0.21875 0
0.1875 0.21875 0
0.15625 0.25 0
0.1875 0.25 0
0.1875 0.1875 0
0.21875 0.1875 0
0.1875 0.21875 0
0.21875 0.21875 0
0.21875 0.1875 0
0.25 0.1875 0
0.21875 0.21875 0
0.25 0.21875 0
0.1875 0.21875 0
0.21875 0.21875 0
0.1875 0.25 0
0.21875 0.25 0
0.21875 0.21875 0
0.25 0.21875 0
0.21875 0.25 0
0.25 0.25 0
0.25 0 0
0.28125 0 0
0.25 0.03125 0
0.28125 0.03125 0
0.28125 0 0
0.3125 0 0
0.28125 0.03125 0
0.3125 0.03125 0
0.25 0.03125 0
0.28125 0.03125 0
0.25 0.0625 0
0.28125 0.0625 0
0.28125 0.03125 0
0.3125 0.03125 0
0.28125 0.0625 0
0.3125 0.0625 0
0.3125 0 0
0.34375 0 0
0.3125 0.03125 0
0.34375 0.03125 0
0.34375 0 0
0.375 0 0
0.34375 0.03125 0
0.375 0.03125 0
0.3125 0.03125 0
0.34375 0.03125 0
0.3125 0.0625 0
0.34375 0.0625 0
0.34375 0.03125 0
0.375 0.03125 0
0.34375 0.0625 0
0.375 0.0625 0
0.25 0.0625 0
0.28125 0.0625 0
0.25 0.09375 0
0.28125 0.09375 0
0.28125 0.0625 0
0.3125 0.0625 0
0.28125 0.09375 0
0.3125 0.09375 0
0.25 0.09375 0
0.28125 0.09375 0
0.25 0.125 0
0.28125 0.125 0
0.28125 0.09375 0
0.3125 0.09375 0
0.28125 0.125 0
0.3125 0.125 0
0.3125 0.0625 0
0.34375 0.0625 0
0.3125 0.09375 0
0.34375 0.09375 0
0.34375 0.0625 0
0.375 0.0625 0
0.34375 0.09375 0
0.375 0.09375 0
0.3125 0.09375 0
0.34375 0.09375 0
0.3125 0.125 0
0.34375 0.125 0
0.34375 0.09375 0
0.375 0.09375 0
0.34375 0.125 0
0.375 0.125 0
0.375 0 0
0.40625 0 0
0.375 0.03125 0
0.40625 0.03125 0
0.40625 0 0
0.4375 0 0
0.40625 0.03125 0
0.4375 0.03125 0
0.375 0.03125 0
0.40625 0.03125 0
0.375 0.0625 0
0.40625 0.0625 0
0.40625 0.03125 0
0.4375 0.03125 0
0.40625 0.0625 0
0.4375 0.0625 0
0.4375 0 0
0.46875 0 0
0.4375 0.03125 0
0.46875 0.03125 0
0.46875 0 0
0.5 0 0
0.46875 0.03125 0
0.5 0.03125 0
0.4375 0.03125 0
0.46875 0.03125 0
0.4375 0.0625 0
0.46875 0.0625 0
0.46875 0.03125 0
0.5 0.03125 0
0.46875 0.0625 0
0.5 0.0625 0
0.375 0.0625 0
0.40625 0.0625 0
0.375 0.09375 0
0.40625 0.09375 0
0.40625 0.0625 0
0.4375 0.0625 0
0.40625 0.09375 0
0.4375 0.09375 0
0.375 0.09375 0
0.40625 0.09375 0
0.375 0.125 0
0.40625 0.125 0
0.40625 0.09375 0
0.4375 0.09375 0
0.40625 0.125 0
0.4375 0.125 0
0.4375 0.0625 0
0.46875 0.0625 0
0.4375 0.09375 0
0.46875 0.09375 0
0.46875 0.0625 0
0.5 0.0625 0
0.46875 0.09375 0
0.5 0.09375 0
0.4375 0.09375 0
0.46875 0.09375 0
0.4375 0.125 0
0.46875 0.125 0
0.46875 0.09375 0
0.5 0.09375 0
0.46875 0.125 0
0.5 0.125 0
0.25 0.125 0
0.28125 0.125 0
0.25 0.15625 0
0.28125 0.15625 0
0.28125 0.125 0
0.3125 0.125 0
0.28125 0.15625 0
0.3125 0.15625 0
0.25 0.15625 0
0.28125 0.15625 0
0.25 0.1875 0
0.28125 0.1875 0
0.28125 0.15625 0
0.3125 0.15625 0
0.28125 0.1875 0
0.3125 0.1875 0
0.3125 0.125 0
0.34375 0.125 0
0.3125 0.15625 0
0.34375 0.15625 0
0.34375 0.125 0
0.375 0.125 0
0.34375 0.15625 0
0.375 0.15625 0
0.3125 0.15625 0
0.34375 0.15625 0
0.3125 0.1875 0
0.34375 0.1875 0
0.34375 0.15625 0
0.375 0.15625 0
0.34375 0.1875 0
0.375 0.1875 0
0.25 0.1875 0
0.28125 0.1875 0
0.25 0.21875 0
0.28125 0.21875 0
0.28125 0.1875 0
0.3125 0.1875 0
0.28125 0.21875 0
0.3125 0.21875 0
0.25 0.21875 0
0.28125 0.21875 0
0.25 0.25 0
0.28125 0.25 0
0.28125 0.21875 0
0.3125 0.21875 0
0.28125 0.25 0
0.3125 0.25 0
0.3125 0.1875 0
0.34375 0.1875 0
0.3125 0.21875 0
0.34375 0.21875 0
0.34375 0.1875 0
0.375 0.1875 0
0.34375 0.21875 0
0.375 0.21875 0
0.3125 0.21875 0
0.34375 0.21875 0
0.3125 0.25 0
0.34375 0.25 0
0.34375 0.21875 0
0.375 0.21875 0
0.34375 0.25 0
0.375 0.25 0
0.375 0.125 0
0.40625 0.125 0
0.375 0.15625 0
0.40625 0.15625 0
0.40625 0.125 0
0.4375 0.125 0
0.40625 0.15625 0
0.4375 0.15625 0
0.375 0.15625 0
0.40625 0.15625 0
0.375 0.1875 0
0.40625 0.1875 0
0.40625 0.15625 0
0.4375 0.15625 0
0.40625 0.1875 0
0.4375 0.1875 0
0.4375 0.125 0
0.46875 0.125 0
0.4375 0.15625 0
0.46875 0.15625 0
0.46875 0.125 0
0.5 0.125 0
0.46875 0.15625 0
0.5 0.15625 0
0.4375 0.15625 0
0.46875 0.15625 0
0.4375 0.1875 0
0.46875 0.1875 0
0.46875 0.15625 0
0.5 0.15625 0
0.46875 0.1875 0
0.5 0.1875 0
0.375 0.1875 0
0.40625 0.1875 0
0.375 0.21875 0
0.40625 0.21875 0
0.40625 0.1875 0
0.4375 0.1875 0
0.40625 0.21875 0
0.4375 0.21875 0
0.375 0.21875 0
0.40625 0.21875 0
0.375 0.25 0
0.40625 0.25 0
0.40625 0.21875 0
0.4375 0.21875 0
0.40625 0.25 0
0.4375 0.25 0
0.4375 0.1875 0
0.46875 0.1875 0
0.4375 0.21875 0
0.46875 0.21875 0
0.46875 0.1875 0
0.5 0.1875 0
0.46875 0.21875 0
0.5 0.21875 0
0.4375 0.21875 0
0.46875 0.21875 0
0.4375 0.25 0
0.46875 0.25 0
0.46875 0.21875 0
0.5 0.21875 0
0.46875 0.25 0
0.5 0.25 0
0 0.25 0
0.03125 0.25 0
0 0.28125 0
0.03125 0.28125 0
0.03125 0.25 0
0.0625 0.25 0
0.03125 0.28125 0
0.0625 0.28125 0
0 0.28125 0
0.03125 0.28125 0
0 0.3125 0
0.03125 0.3125 0
0.03125 0.28125 0
0.0625 0.28125 0
0.03125 0.3125 0
0.0625 0.3125 0
0.0625 0.25 0
0.09375 0.25 0
0.0625 0.28125 0
0.09375 0.28125 0
0.09375 0.25 0
0.125 0.25 0
0.09375 0.28125 0
0.125 0.28125 0
0.0625 0.28125 0
0.09375 0.28125 0
0.0625 0.3125 0
0.09375 0.3125 0
0.09375 0.28125 0
0.125 0.28125 0
0.09375 0.3125 0
0.125 0.3125 0
0 0.3125 0
0.03125 0.3125 0
0 0.34375 0
0.03125 0.34375 0
0.03125 0.3125 0
0.0625 0.3125 0
0.03125 0.34375 0
0.0625 0.34375 0
0 0.34375 0
0.03125 0.34375 0
0 0.375 0
0.03125 0.375 0
0.03125 0.34375 0
0.0625 0.34375 0
0.03125 0.375 0
0.0625 0.375 0
0.0625 0.3125 0
0.09375 0.3125 0
0.0625 0.34375 0
0.09375 0.34375 0
0.09375 0.3125 0
0.125 0.3125 0
0.09375 0.34375 0
0.125 0.34375 0
0.0625 0.34375 0
0.09375 0.34375 0
0.0625 0.375 0
0.09375 0.375 0
0.09375 0.34375 0
0.125 0.34375 0
0.09375 0.375 0
0.125 0.375 0
0.125 0.25 0
0.15625 0.25 0
0.125 0.28125 0
0.15625 0.28125 0
0.15625 0.25 0
0.1875 0.25 0
0.15625 0.28125 0
0.1875 0.28125 0
0.125 0.28125 0
0.15625 0.28125 0
0.125 0.3125 0
0.15625 0.3125 0
0.15625 0.28125 0
0.1875 0.28125 0
0.15625 0.3125 0
0.1875 0.3125 0
0.1875 0.25 0
0.21875 0.25 0
0.1875 0.28125 0
0.21875 0.28125 0
0.21875 0.25 0
0.25 0.25 0
0.21875 0.28125 0
0.25 0.28125 0
0.1875 0.28125 0
0.21875 0.28125 0
0.1875 0.3125 0
0.21875 0.3125 0
0.21875 0.28125 0
0.25 0.28125 0
0.21875 0.3125 0
0.25 0.3125 0
0.125 0.3125 0
0.15625 0.3125 0
0.125 0.34375 0
0.15625 0.34375 0
0.15625 0.3125 0
0.1875 0.3125 0
0.15625 0.34375 0
0.1875 0.34375 0
0.125 0.34375 0
[...]
POINT_DATA 4096
SCALARS p double 1
LOOKUP_TABLE default
-1.46924e-05 6.88578e-05 -0.000109567 -2.37403e-05 6.88578e-05 0.000313033 -2.37403e-05 0.00010782 -0.000109567 -2.37403e-05 -0.000357575 -0.000155102 -2.37403e-05 0.00010782 -0.000155102 -2.03473e-05 0.000313033 0.000560316 0.00010782 0.000241568 0.000560316 0.000716436 0.000241568 0.000316868 0.00010782 0.000241568 -2.03473e-05 0.000103912 0.000241568 0.000316868 0.000103912 0.00015764 -0.000357575 -0.000155102 -0.00061558 -0.000290676 -0.000155102 -2.03473e-05 -0.000290676 -0.000138186 -0.00061558 -0.000290676 -0.000791161 -0.000368693 -0.000290676 -0.000138186 -0.000368693 -0.000182388 -2.03473e-05 0.000103912 -0.000138186 -9.02845e-06 0.000103912 0.00015764 -9.02845e-06 3.45824e-05 -0.000138186 -9.02845e-06 -0.000182388 -3.13909e-05 -9.02845e-06 3.45824e-05 -3.13909e-05 1.78437e-05 0.000716436 0.000740369 0.000316868 0.000306081 0.000740369 0.000620005 0.000306081 0.000195742 0.000316868 0.000306081 0.00015764 0.000125424 0.000306081 0.000195742 0.000125424 -5.57797e-06 0.000620005 0.000356395 0.000195742 -1.7594e-05 0.000356395 -4.33435e-05 -1.7594e-05 -0.000331987 0.000195742 -1.7594e-05 -5.57797e-06 -0.000239751 -1.7594e-05 -0.000331987 -0.000239751 -0.000576781 0.00015764 0.000125424 3.45824e-05 -6.47359e-06 0.000125424 -5.57797e-06 -6.47359e-06 -0.00014041 3.45824e-05 -6.47359e-06 1.78437e-05 -2.3075e-05 -6.47359e-06 -0.00014041 -2.3075e-05 -0.00015809 -5.57797e-06 -0.000239751 -0.00014041 -0.000369809 -0.000239751 -0.000576781 -0.000369809 -0.000694618 -0.00014041 -0.000369809 -0.00015809 -0.000387381 -0.000369809 -0.000694618 -0.000387381 -0.000710155 -0.000791161 -0.000368693 -0.000839833 -0.00035706 -0.000368693 -0.000182388 -0.00035706 -0.000131188 -0.000839833 -0.00035706 -0.000742044 -0.000235729 -0.00035706 -0.000131188 -0.000235729 3.63084e-05 -0.000182388 -3.13909e-05 -0.000131188 4.35733e-05 -3.13909e-05 1.78437e-05 4.35733e-05 0.000104656 -0.000131188 4.35733e-05 3.63084e-05 0.000232846 4.35733e-05 0.000104656 0.000232846 0.000308359 -0.000742044 -0.000235729 -0.000488362 7.4881e-06 -0.000235729 3.63084e-05 7.4881e-06 0.000334551 -0.000488362 7.4881e-06 -7.28742e-05 0.000381522 7.4881e-06 0.000334551 0.000381522 0.000775404 3.63084e-05 0.000232846 0.000334551 0.000549415 0.000232846 0.000308359 0.000549415 0.000639892 0.000334551 0.000549415 0.000775404 0.00100533 0.000549415 0.000639892 0.00100533 0.00111068 1.78437e-05 -2.3075e-05 0.000104656 6.88599e-05 -2.3075e-05 -0.00015809 6.88599e-05 -6.42791e-05 0.000104656 6.88599e-05 0.000308359 0.000279604 6.88599e-05 -6.42791e-05 0.000279604 0.000148905 -0.00015809 -0.000387381 -6.42791e-05 -0.000292805 -0.000387381 -0.000710155 -0.000292805 -0.000614952 -6.42791e-05 -0.000292805 0.000148905 -8.0245e-05 -0.000292805 -0.000614952 -8.0245e-05 -0.000405176 0.000308359 0.000279604 0.000639892 0.000618159 0.000279604 0.000148905 0.000618159 0.000489127 0.000639892 0.000618159 0.00111068 0.00109494 0.000618159 0.000489127 0.00109494 0.000965806 0.000148905 -8.0245e-05 0.000489127 0.000257207 -8.0245e-05 -0.000405176 0.000257207 -7.41828e-05 0.000489127 0.000257207 0.000965806 0.000728236 0.000257207 -7.41828e-05 0.000728236 0.000386249 -4.33435e-05 -0.000569724 -0.000331987 -0.000742604 -0.000569724 -0.00121245 -0.000742604 -0.00124298 -0.000331987 -0.000742604 -0.000576781 -0.00101324 -0.000742604 -0.00124298 -0.00101324 -0.00154356 -0.00121245 -0.00196087 -0.00124298 -0.00182565 -0.00196087 -0.00280384 -0.00182565 -0.00248227 -0.00124298 -0.00182565 -0.00154356 -0.00216075 -0.00182565 -0.00248227 -0.00216075 -0.00285645 -0.000576781 -0.00101324 -0.000694618 -0.00111237 -0.00101324 -0.00154356 -0.00111237 -0.00161869 -0.000694618 -0.00111237 -0.000710155 -0.00112403 -0.00111237 -0.00161869 -0.00112403 -0.00162514 -0.00154356 -0.00216075 -0.00161869 -0.0022077 -0.00216075 -0.00285645 -0.0022077 -0.00287202 -0.00161869 -0.0022077 -0.00162514 -0.00220824 -0.0022077 -0.00287202 -0.00220824 -0.0028666 -0.00280384 -0.00372942 -0.00248227 -0.0032036 -0.00372942 -0.0047245 -0.0032036 -0.00397925 -0.00248227 -0.0032036 -0.00285645 -0.00362114 -0.0032036 -0.00397925 -0.00362114 -0.00444388 -0.0047245 -0.00577455 -0.00397925 -0.0047977 -0.00577455 -0.00686348 -0.0047977 -0.00564613 -0.00397925 -0.0047977 -0.00444388 -0.00531242 -0.0047977 -0.00564613 -0.00531242 -0.00621303 -0.00285645 -0.00362114 -0.00287202 -0.00360299 -0.00362114 -0.00444388 -0.00360299 -0.00439043 -0.00287202 -0.00360299 -0.0028666 -0.00359207 -0.00360299 -0.00439043 -0.00359207 -0.0043749 -0.00444388 -0.00531242 -0.00439043 -0.00522271 -0.00531242 -0.00621303 -0.00522271 -0.00608677 -0.00439043 -0.00522271 -0.0043749 -0.00520384 -0.00522271 -0.00608677 -0.00520384 -0.006066 -0.000710155 -0.00112403 -0.000614952 -0.0010281 -0.00112403 -0.00162514 -0.0010281 -0.00152861 -0.000614952 -0.0010281 -0.000405176 -0.000822937 -0.0010281 -0.00152861 -0.000822937 -0.00132994 -0.00162514 -0.00220824 -0.00152861 -0.00211167 -0.00220824 -0.0028666 -0.00211167 -0.00277105 -0.00152861 -0.00211167 -0.00132994 -0.00192169 -0.00211167 -0.00277105 -0.00192169 -0.00259234 -0.000405176 -0.000822937 -7.41828e-05 -0.000501787 -0.000822937 -0.00132994 -0.000501787 -0.00102208 -7.41828e-05 -0.000501787 0.000386249 -5.67076e-05 -0.000501787 -0.00102208 -5.67076e-05 -0.000597163 -0.00132994 -0.00192169 -0.00102208 -0.00163076 -0.00192169 -0.00259234 -0.00163076 -0.00232231 -0.00102208 -0.00163076 -0.000597163 -0.00123103 -0.00163076 -0.00232231 -0.00123103 -0.00195313 -0.0028666 -0.00359207 -0.00277105 -0.0034991 -0.00359207 -0.0043749 -0.0034991 -0.00428645 -0.00277105 -0.0034991 -0.00259234 -0.0033346 -0.0034991 -0.00428645 -0.0033346 -0.00413942 -0.0043749 -0.00520384 -0.00428645 -0.00512215 -0.00520384 -0.006066 -0.00512215 -0.00599347 -0.00428645 -0.00512215 -0.00413942 -0.00499608 -0.00512215 -0.00599347 -0.00499608 -0.00589186 -0.00259234 -0.0033346 -0.00232231 -0.00308975 -0.0033346 -0.00413942 -0.00308975 -0.00392435 -0.00232231 -0.00308975 -0.00195313 -0.00275679 -0.00308975 -0.00392435 -0.00275679 -0.00363356 -0.00413942 -0.00499608 -0.00392435 -0.00481551 -0.00499608 -0.00589186 -0.00481551 -0.00575049 -0.00392435 -0.00481551 -0.00363356 -0.004573 -0.00481551 -0.00575049 -0.004573 -0.00556226 -7.28742e-05 0.000381522 0.00051044 0.000894529 0.000381522 0.000775404 0.000894529 0.00136987 0.00051044 0.000894529 0.00126959 0.00155551 0.000894529 0.00136987 0.00155551 0.00212962 0.000775404 0.00100533 0.00136987 0.00161231 0.00100533 0.00111068 0.00161231 0.00173249 0.00136987 0.00161231 0.00212962 0.00238289 0.00161231 0.00173249 0.00238289 0.00251823 0.00126959 0.00155551 0.00221551 0.00237526 0.00155551 0.00212962 0.00237526 0.00306796 0.00221551 0.00237526 0.00336244 0.00336706 0.00237526 0.00306796 0.00336706 0.00420082 0.00212962 0.00238289 0.00306796 0.00333116 0.00238289 0.00251823 0.00333116 0.00348254 0.00306796 0.00333116 0.00420082 0.00447365 0.00333116 0.00348254 0.00447365 0.00464248 0.00111068 0.00109494 0.00173249 0.00172134 0.00109494 0.000965806 0.00172134 0.0015899 0.00173249 0.00172134 0.00251823 0.0025103 0.00172134 0.0015899 0.0025103 0.00237421 0.000965806 0.000728236 0.0015899 0.00134342 0.000728236 0.000386249 0.00134342 0.000986471 0.0015899 0.00134342 0.00237421 0.00211549 0.00134342 0.000986471 0.00211549 0.0017392 0.00251823 0.0025103 0.00348254 0.00347668 0.0025103 0.00237421 0.00347668 0.00333372 0.00348254 0.00347668 0.00464248 0.00463779 0.00347668 0.00333372 0.00463779 0.00448594 0.00237421 0.00211549 0.00333372 0.00305949 0.00211549 0.0017392 0.00305949 0.00265971 0.00333372 0.00305949 0.00448594 0.00419319 0.00305949 0.00265971 0.00419319 0.0037661 0.00336244 0.00336706 0.00472823 0.00454707 0.00336706 0.00420082 0.00454707 0.0055472 0.00472823 0.00454707 0.00633473 0.00593495 0.00454707 0.0055472 0.00593495 0.00713008 0.00420082 0.00447365 0.0055472 0.00582995 0.00447365 0.00464248 0.00582995 0.00601813 0.0055472 0.00582995 0.00713008 0.00742347 0.00582995 0.00601813 0.00742347 0.00763331 0.00633473 0.00593495 0.00820818 0.00755442 0.00593495 0.00713008 0.00755442 0.00897714 0.00820818 0.00755442 0.0103801 0.00943427 0.00755442 0.00897714 0.00943427 0.011122 0.00713008 0.00742347 0.00897714 0.00928221 0.00742347 0.00763331 0.00928221 0.00951621 0.00897714 0.00928221 0.011122 0.01144 0.00928221 0.00951621 0.01144 0.0117005 0.00464248 0.00463779 0.00601813 0.00601392 0.00463779 0.00448594 0.00601392 0.00585133 0.00601813 0.00601392 0.00763331 0.00762897 0.00601392 0.00585133 0.00762897 0.00745378 0.00448594 0.00419319 0.00585133 0.00553729 0.00419319 0.0037661 0.00553729 0.00507947 0.00585133 0.00553729 0.00745378 0.0071158 0.00553729 0.00507947 0.0071158 0.00662416 0.00763331 0.00762897 0.00951621 0.00951091 0.00762897 0.00745378 0.00951091 0.00932099 0.00951621 0.00951091 0.0117005 0.0116927 0.00951091 0.00932099 0.0116927 0.011485 0.00745378 0.0071158 0.00932099 0.00895622 0.0071158 0.00662416 0.00895622 0.00842778 0.00932099 0.00895622 0.011485 0.01109 0.00895622 0.00842778 0.01109 0.0105215 0.000386249 -5.67076e-05 0.000986471 0.0005226 -5.67076e-05 -0.000597163 0.0005226 -4.48002e-05 0.000986471 0.0005226 0.0017392 0.001249 0.0005226 -4.48002e-05 0.001249 0.00064814 -0.000597163 -0.00123103 -4.48002e-05 -0.000711908 -0.00123103 -0.00195313 -0.000711908 -0.00147393 -4.48002e-05 -0.000711908 0.00064814 -5.98975e-05 -0.000711908 -0.00147393 -5.98975e-05 -0.000870794 0.0017392 0.001249 0.00265971 0.00213813 0.001249 0.00064814 0.00213813 0.00149779 0.00265971 0.00213813 0.0037661 0.00320856 0.00213813 0.00149779 0.00320856 0.0025234 0.00064814 -5.98975e-05 0.00149779 0.000741732 -5.98975e-05 -0.000870794 0.000741732 -0.00012634 0.00149779 0.000741732 0.0025234 0.00171306 0.000741732 -0.00012634 0.00171306 0.000780455 -0.00195313 -0.00275679 -0.00147393 -0.0023246 -0.00275679 -0.00363356 -0.0023246 -0.00325581 -0.00147393 -0.0023246 -0.000870794 -0.00177882 -0.0023246 -0.00325581 -0.00177882 -0.00277635 -0.00363356 -0.004573 -0.00325581 -0.00425725 -0.004573 -0.00556226 -0.00425725 -0.00531604 -0.00325581 -0.00425725 -0.00277635 -0.00385339 -0.00425725 -0.00531604 -0.00385339 -0.00499714 -0.000870794 -0.00177882 -0.00012634 -0.00110142 -0.00177882 -0.00277635 -0.00110142 -0.00217658 -0.00012634 -0.00110142 0.000780455 -0.000270359 -0.00110142 -0.00217658 -0.000270359 -0.00143347 -0.00277635 -0.00385339 -0.00217658 -0.00334239 -0.00385339 -0.00499714 -0.00334239 -0.0045864 -0.00217658 -0.00334239 -0.00143347 -0.00270038 -0.00334239 -0.0045864 -0.00270038 -0.00405938 0.0037661 0.00320856 0.00507947 0.00448203 0.00320856 0.0025234 0.00448203 0.00374753 0.00507947 0.00448203 0.00662416 0.00598345 0.00448203 0.00374753 0.00598345 0.005196 0.0025234 0.00171306 0.00374753 0.00287769 0.00171306 0.000780455 0.00287769 0.00187444 0.00374753 0.00287769 0.005196 0.0042627 0.00287769 0.00187444 0.0042627 0.00318425 0.00662416 0.00598345 0.00842778 0.00774094 0.00598345 0.005196 0.00774094 0.00689781 0.00842778 0.00774094 0.0105215 0.0097857 0.00774094 0.00689781 0.0097857 0.00888478 0.005196 0.0042627 0.00689781 0.00589841 0.0042627 0.00318425 0.00589841 0.00474203 0.00689781 0.00589841 0.00888478 0.00781787 0.00589841 0.00474203 0.00781787 0.00658276 0.000780455 -0.000270359 0.00187444 0.000740593 -0.000270359 -0.00143347 0.000740593 -0.000519318 0.00187444 0.000740593 0.00318425 0.00196193 0.000740593 -0.000519318 0.00196193 0.000598462 -0.00143347 -0.00270038 -0.000519318 -0.00189822 -0.00270038 -0.00405938 -0.00189822 -0.00338571 -0.000519318 -0.00189822 0.000598462 -0.000901084 -0.00189822 -0.00338571 -0.000901084 -0.00252836 0.00318425 0.00196193 0.00474203 0.00342813 0.00196193 0.000598462 0.00342813 0.00195715 0.00474203 0.00342813 0.00658276 0.00517682 0.00342813 0.00195715 0.00517682 0.00359787 0.000598462 -0.000901084 0.00195715 0.000331511 -0.000901084 -0.00252836 0.000331511 -0.00144338 0.00195715 0.000331511 0.00359787 0.00184504 0.000331511 -0.00144338 0.00184504 -8.01531e-05 -0.00686348 -0.00797358 -0.00564613 -0.00651049 -0.00797358 -0.00908557 -0.00651049 -0.00737556 -0.00564613 -0.00651049 -0.00621303 -0.00713065 -0.00651049 -0.00737556 -0.00713065 -0.00804899 -0.00908557 -0.0101787 -0.00737556 -0.00822503 -0.0101787 -0.0112313 -0.00822503 -0.00904186 -0.00737556 -0.00822503 -0.00804899 -0.00895062 -0.00822503 -0.00904186 -0.00895062 -0.00981736 -0.00621303 -0.00713065 -0.00608677 -0.00696812 -0.00713065 -0.00804899 -0.00696812 -0.00785099 -0.00608677 -0.00696812 -0.006066 -0.00694702 -0.00696812 -0.00785099 -0.00694702 -0.00783112 -0.00804899 -0.00895062 -0.00785099 -0.00871854 -0.00895062 -0.00981736 -0.00871854 -0.00955316 -0.00785099 -0.00871854 -0.00783112 -0.00870136 -0.00871854 -0.00955316 -0.00870136 -0.00953988 -0.0112313 -0.0122206 -0.00904186 -0.00980856 -0.0122206 -0.0131237 -0.00980856 -0.0105076 -0.00904186 -0.00980856 -0.00981736 -0.0106307 -0.00980856 -0.0105076 -0.0106307 -0.0113722 -0.0131237 -0.0139178 -0.0105076 -0.0111221 -0.0139178 -0.0145812 -0.0111221 -0.0116364 -0.0105076 -0.0111221 -0.0113722 -0.0120246 -0.0111221 -0.0116364 -0.0120246 -0.012572 -0.00981736 -0.0106307 -0.00955316 -0.0103369 -0.0106307 -0.0113722 -0.0103369 -0.0110522 -0.00955316 -0.0103369 -0.00953988 -0.0103285 -0.0103369 -0.0110522 -0.0103285 -0.0110492 -0.0113722 -0.0120246 -0.0110522 -0.0116822 -0.0120246 -0.012572 -0.0116822 -0.0122122 -0.0110522 -0.0116822 -0.0110492 -0.011685 -0.0116822 -0.0122122 -0.011685 -0.0122207 -0.006066 -0.00694702 -0.00599347 -0.00688608 -0.00694702 -0.00783112 -0.00688608 -0.00778401 -0.00599347 -0.00688608 -0.00589186 -0.0068123 -0.00688608 -0.00778401 -0.0068123 -0.00774099 -0.00783112 -0.00870136 -0.00778401 -0.00866997 -0.00870136 -0.00953988 -0.00866997 -0.00952557 -0.00778401 -0.00866997 -0.00774099 -0.00865998 -0.00866997 -0.00952557 -0.00865998 -0.00954997 -0.00589186 -0.0068123 -0.00575049 -0.00671451 -0.0068123 -0.00774099 -0.00671451 -0.00769055 -0.00575049 -0.00671451 -0.00556226 -0.00658615 -0.00671451 -0.00769055 -0.00658615 -0.00762692 -0.00774099 -0.00865998 -0.00769055 -0.00865973 -0.00865998 -0.00954997 -0.00865973 -0.0096014 -0.00769055 -0.00865973 -0.00762692 -0.00866446 -0.00865973 -0.0096014 -0.00866446 -0.00967646 -0.00953988 -0.0103285 -0.00952557 -0.0103319 -0.0103285 -0.0110492 -0.0103319 -0.0110702 -0.00952557 -0.0103319 -0.00954997 -0.0103909 -0.0103319 -0.0110702 -0.0103909 -0.0111625 -0.0110492 -0.011685 -0.0110702 -0.0117225 -0.011685 -0.0122207 -0.0117225 -0.0122727 -0.0110702 -0.0117225 -0.0111625 -0.0118453 -0.0117225 -0.0122727 -0.0118453 -0.0124216 -0.00954997 -0.0103909 -0.0096014 -0.0104938 -0.0103909 -0.0111625 -0.0104938 -0.0113148 -0.0096014 -0.0104938 -0.00967646 -0.010639 -0.0104938 -0.0113148 -0.010639 -0.0115272 -0.0111625 -0.0118453 -0.0113148 -0.0120427 -0.0118453 -0.0124216 -0.0120427 -0.0126575 -0.0113148 -0.0120427 -0.0115272 -0.0123165 -0.0120427 -0.0126575 -0.0123165 -0.012984 -0.0145812 -0.0150941 -0.0116364 -0.0120372 -0.0150941 -0.0154405 -0.0120372 -0.0123155 -0.0116364 -0.0120372 -0.012572 -0.0130017 -0.0120372 -0.0123155 -0.0130017 -0.0133057 -0.0154405 -0.0156122 -0.0123155 -0.0124654 -0.0156122 -0.0156036 -0.0124654 -0.0125047 -0.0123155 -0.0124654 -0.0133057 -0.0134802 -0.0124654 -0.0125047 -0.0134802 -0.0135412 -0.012572 -0.0130017 -0.0122122 -0.0126304 -0.0130017 -0.0133057 -0.0126304 -0.0129295 -0.0122122 -0.0126304 -0.0122207 -0.0126443 -0.0126304 -0.0129295 -0.0126443 -0.0129479 -0.0133057 -0.0134802 -0.0129295 -0.0131057 -0.0134802 -0.0135412 -0.0131057 -0.013174 -0.0129295 -0.0131057 -0.0129479 -0.0131267 -0.0131057 -0.013174 -0.0131267 -0.0131935 -0.0156036 -0.0154688 -0.0125047 -0.012386 -0.0154688 -0.0152053 -0.012386 -0.0124904 -0.0125047 -0.012386 -0.0135412 -0.0134502 -0.012386 -0.0124904 -0.0134502 -0.013548 -0.0152053 -0.0142313 -0.0124904 -0.0111394 -0.0142313 -0.015492 -0.0111394 -0.0140406 -0.0124904 -0.0111394 -0.013548 -0.0122087 -0.0111394 -0.0140406 -0.0122087 -0.0144891 -0.0135412 -0.0134502 -0.013174 -0.0130888 -0.0134502 -0.013548 -0.0130888 -0.0131905 -0.013174 -0.0130888 -0.0131935 -0.0130999 -0.0130888 -0.0131905 -0.0130999 -0.0131729 -0.013548 -0.0122087 -0.0131905 -0.0118151 -0.0122087 -0.0144891 -0.0118151 -0.014213 -0.0131905 -0.0118151 -0.0131729 -0.0117666 -0.0118151 -0.014213 -0.0117666 -0.0139919 -0.0122207 -0.0126443 -0.0122727 -0.0127076 -0.0126443 -0.0129479 -0.0127076 -0.0130185 -0.0122727 -0.0127076 -0.0124216 -0.0128767 -0.0127076 -0.0130185 -0.0128767 -0.0132001 -0.0129479 -0.0131267 -0.0130185 -0.0131989 -0.0131267 -0.0131935 -0.0131989 -0.0132599 -0.0130185 -0.0131989 -0.0132001 -0.0133841 -0.0131989 -0.0132599 -0.0133841 -0.0134383 -0.0124216 -0.0128767 -0.0126575 -0.0131423 -0.0128767 -0.0132001 -0.0131423 -0.0134848 -0.0126575 -0.0131423 -0.012984 -0.01351 -0.0131423 -0.0134848 -0.01351 -0.0138799 -0.0132001 -0.0133841 -0.0134848 -0.013676 -0.0133841 -0.0134383 -0.013676 -0.0137245 -0.0134848 -0.013676 -0.0138799 -0.014083 -0.013676 -0.0137245 -0.014083 -0.0141281 -0.0131935 -0.0130999 -0.0132599 -0.0131504 -0.0130999 -0.0131729 -0.0131504 -0.0131941 -0.0132599 -0.0131504 -0.0134383 -0.0133104 -0.0131504 -0.0131941 -0.0133104 -0.013325 -0.0131729 -0.0117666 -0.0131941 -0.0117443 -0.0117666 -0.0139919 -0.0117443 -0.0139172 -0.0131941 -0.0117443 -0.013325 -0.0118281 -0.0117443 -0.0139172 -0.0118281 -0.0139648 -0.0134383 -0.0133104 -0.0137245 -0.0135773 -0.0133104 -0.013325 -0.0135773 -0.013565 -0.0137245 -0.0135773 -0.0141281 -0.0139612 -0.0135773 -0.013565 -0.0139612 -0.0139231 -0.013325 -0.0118281 -0.013565 -0.012012 -0.0118281 -0.0139648 -0.012012 -0.0141428 -0.013565 -0.012012 -0.0139231 -0.0123023 -0.012012 -0.0141428 -0.0123023 -0.0144486 -0.00556226 -0.00658615 -0.00531604 -0.0064166 -0.00658615 -0.00762692 -0.0064166 -0.00754032 -0.00531604 -0.0064166 -0.00499714 -0.00619168 -0.0064166 -0.00754032 -0.00619168 -0.00741755 -0.00762692 -0.00866446 -0.00754032 -0.00866566 -0.00866446 -0.00967646 -0.00866566 -0.00976823 -0.00754032 -0.00866566 -0.00741755 -0.00865164 -0.00866566 -0.00976823 -0.00865164 -0.00986719 -0.00499714 -0.00619168 -0.0045864 -0.00589254 -0.00619168 -0.00741755 -0.00589254 -0.00724066 -0.0045864 -0.00589254 -0.00405938 -0.00549466 -0.00589254 -0.00724066 -0.00549466 -0.00698574 -0.00741755 -0.00865164 -0.00724066 -0.00860605 -0.00865164 -0.00986719 -0.00860605 -0.0099594 -0.00724066 -0.00860605 -0.00698574 -0.00850654 -0.00860605 -0.0099594 -0.00850654 -0.0100251 -0.00967646 -0.010639 -0.00976823 -0.0108214 -0.010639 -0.0115272 -0.0108214 -0.011797 -0.00976823 -0.0108214 -0.00986719 -0.0110343 -0.0108214 -0.011797 -0.0110343 -0.0121206 -0.0115272 -0.0123165 -0.011797 -0.0126667 -0.0123165 -0.012984 -0.0126667 -0.0134037 -0.011797 -0.0126667 -0.0121206 -0.0130931 -0.0126667 -0.0134037 -0.0130931 -0.0139198 -0.00986719 -0.0110343 -0.0099594 -0.0112669 -0.0110343 -0.0121206 -0.0112669 -0.0124914 -0.0099594 -0.0112669 -0.0100251 -0.0115035 -0.0112669 -0.0124914 -0.0115035 -0.0128983 -0.0121206 -0.0130931 -0.0124914 -0.0135935 -0.0130931 -0.0139198 -0.0135935 -0.0145351 -0.0124914 -0.0135935 -0.0128983 -0.014163 -0.0135935 -0.0145351 -0.014163 -0.0152505 -0.00405938 -0.00549466 -0.00338571 -0.00496691 -0.00549466 -0.00698574 -0.00496691 -0.00662161 -0.00338571 -0.00496691 -0.00252836 -0.00427036 -0.00496691 -0.00662161 -0.00427036 -0.00610817 -0.00698574 -0.00850654 -0.00662161 -0.00832294 -0.00850654 -0.0100251 -0.00832294 -0.0100366 -0.00662161 -0.00832294 -0.00610817 -0.00801513 -0.00832294 -0.0100366 -0.00801513 -0.00995536 -0.00252836 -0.00427036 -0.00144338 -0.00335758 -0.00427036 -0.00610817 -0.00335758 -0.00539494 -0.00144338 -0.00335758 -8.01531e-05 -0.00217232 -0.00335758 -0.00539494 -0.00217232 -0.00441996 -0.00610817 -0.00801513 -0.00539494 -0.00753067 -0.00801513 -0.00995536 -0.00753067 -0.00972892 -0.00539494 -0.00753067 -0.00441996 -0.00680256 -0.00753067 -0.00972892 -0.00680256 -0.00928704 -0.0100251 -0.0115035 -0.0100366 -0.0117201 -0.0115035 -0.