# vtk DataFile Version 3.0
#This file was generated by the deal.II library on 2026/1/5 at 14:19:36
ASCII
DATASET UNSTRUCTURED_GRID

POINTS 4096 double
0 0 0
0.03125 0 0
0 0.03125 0
0.03125 0.03125 0
0.03125 0 0
0.0625 0 0
0.03125 0.03125 0
0.0625 0.03125 0
0 0.03125 0
0.03125 0.03125 0
0 0.0625 0
0.03125 0.0625 0
0.03125 0.03125 0
0.0625 0.03125 0
0.03125 0.0625 0
0.0625 0.0625 0
0.0625 0 0
0.09375 0 0
0.0625 0.03125 0
0.09375 0.03125 0
0.09375 0 0
0.125 0 0
0.09375 0.03125 0
0.125 0.03125 0
0.0625 0.03125 0
0.09375 0.03125 0
0.0625 0.0625 0
0.09375 0.0625 0
0.09375 0.03125 0
0.125 0.03125 0
0.09375 0.0625 0
0.125 0.0625 0
0 0.0625 0
0.03125 0.0625 0
0 0.09375 0
0.03125 0.09375 0
0.03125 0.0625 0
0.0625 0.0625 0
0.03125 0.09375 0
0.0625 0.09375 0
0 0.09375 0
0.03125 0.09375 0
0 0.125 0
0.03125 0.125 0
0.03125 0.09375 0
0.0625 0.09375 0
0.03125 0.125 0
0.0625 0.125 0
0.0625 0.0625 0
0.09375 0.0625 0
0.0625 0.09375 0
0.09375 0.09375 0
0.09375 0.0625 0
0.125 0.0625 0
0.09375 0.09375 0
0.125 0.09375 0
0.0625 0.09375 0
0.09375 0.09375 0
0.0625 0.125 0
0.09375 0.125 0
0.09375 0.09375 0
0.125 0.09375 0
0.09375 0.125 0
0.125 0.125 0
0.125 0 0
0.15625 0 0
0.125 0.03125 0
0.15625 0.03125 0
0.15625 0 0
0.1875 0 0
0.15625 0.03125 0
0.1875 0.03125 0
0.125 0.03125 0
0.15625 0.03125 0
0.125 0.0625 0
0.15625 0.0625 0
0.15625 0.03125 0
0.1875 0.03125 0
0.15625 0.0625 0
0.1875 0.0625 0
0.1875 0 0
0.21875 0 0
0.1875 0.03125 0
0.21875 0.03125 0
0.21875 0 0
0.25 0 0
0.21875 0.03125 0
0.25 0.03125 0
0.1875 0.03125 0
0.21875 0.03125 0
0.1875 0.0625 0
0.21875 0.0625 0
0.21875 0.03125 0
0.25 0.03125 0
0.21875 0.0625 0
0.25 0.0625 0
0.125 0.0625 0
0.15625 0.0625 0
0.125 0.09375 0
0.15625 0.09375 0
0.15625 0.0625 0
0.1875 0.0625 0
0.15625 0.09375 0
0.1875 0.09375 0
0.125 0.09375 0
0.15625 0.09375 0
0.125 0.125 0
0.15625 0.125 0
0.15625 0.09375 0
0.1875 0.09375 0
0.15625 0.125 0
0.1875 0.125 0
0.1875 0.0625 0
0.21875 0.0625 0
0.1875 0.09375 0
0.21875 0.09375 0
0.21875 0.0625 0
0.25 0.0625 0
0.21875 0.09375 0
0.25 0.09375 0
0.1875 0.09375 0
0.21875 0.09375 0
0.1875 0.125 0
0.21875 0.125 0
0.21875 0.09375 0
0.25 0.09375 0
0.21875 0.125 0
0.25 0.125 0
0 0.125 0
0.03125 0.125 0
0 0.15625 0
0.03125 0.15625 0
0.03125 0.125 0
0.0625 0.125 0
0.03125 0.15625 0
0.0625 0.15625 0
0 0.15625 0
0.03125 0.15625 0
0 0.1875 0
0.03125 0.1875 0
0.03125 0.15625 0
0.0625 0.15625 0
0.03125 0.1875 0
0.0625 0.1875 0
0.0625 0.125 0
0.09375 0.125 0
0.0625 0.15625 0
0.09375 0.15625 0
0.09375 0.125 0
0.125 0.125 0
0.09375 0.15625 0
0.125 0.15625 0
0.0625 0.15625 0
0.09375 0.15625 0
0.0625 0.1875 0
0.09375 0.1875 0
0.09375 0.15625 0
0.125 0.15625 0
0.09375 0.1875 0
0.125 0.1875 0
0 0.1875 0
0.03125 0.1875 0
0 0.21875 0
0.03125 0.21875 0
0.03125 0.1875 0
0.0625 0.1875 0
0.03125 0.21875 0
0.0625 0.21875 0
0 0.21875 0
0.03125 0.21875 0
0 0.25 0
0.03125 0.25 0
0.03125 0.21875 0
0.0625 0.21875 0
0.03125 0.25 0
0.0625 0.25 0
0.0625 0.1875 0
0.09375 0.1875 0
0.0625 0.21875 0
0.09375 0.21875 0
0.09375 0.1875 0
0.125 0.1875 0
0.09375 0.21875 0
0.125 0.21875 0
0.0625 0.21875 0
0.09375 0.21875 0
0.0625 0.25 0
0.09375 0.25 0
0.09375 0.21875 0
0.125 0.21875 0
0.09375 0.25 0
0.125 0.25 0
0.125 0.125 0
0.15625 0.125 0
0.125 0.15625 0
0.15625 0.15625 0
0.15625 0.125 0
0.1875 0.125 0
0.15625 0.15625 0
0.1875 0.15625 0
0.125 0.15625 0
0.15625 0.15625 0
0.125 0.1875 0
0.15625 0.1875 0
0.15625 0.15625 0
0.1875 0.15625 0
0.15625 0.1875 0
0.1875 0.1875 0
0.1875 0.125 0
0.21875 0.125 0
0.1875 0.15625 0
0.21875 0.15625 0
0.21875 0.125 0
0.25 0.125 0
0.21875 0.15625 0
0.25 0.15625 0
0.1875 0.15625 0
0.21875 0.15625 0
0.1875 0.1875 0
0.21875 0.1875 0
0.21875 0.15625 0
0.25 0.15625 0
0.21875 0.1875 0
0.25 0.1875 0
0.125 0.1875 0
0.15625 0.1875 0
0.125 0.21875 0
0.15625 0.21875 0
0.15625 0.1875 0
0.1875 0.1875 0
0.15625 0.21875 0
0.1875 0.21875 0
0.125 0.21875 0
0.15625 0.21875 0
0.125 0.25 0
0.15625 0.25 0
0.15625 0.21875 0
0.1875 0.21875 0
0.15625 0.25 0
0.1875 0.25 0
0.1875 0.1875 0
0.21875 0.1875 0
0.1875 0.21875 0
0.21875 0.21875 0
0.21875 0.1875 0
0.25 0.1875 0
0.21875 0.21875 0
0.25 0.21875 0
0.1875 0.21875 0
0.21875 0.21875 0
0.1875 0.25 0
0.21875 0.25 0
0.21875 0.21875 0
0.25 0.21875 0
0.21875 0.25 0
0.25 0.25 0
0.25 0 0
0.28125 0 0
0.25 0.03125 0
0.28125 0.03125 0
0.28125 0 0
0.3125 0 0
0.28125 0.03125 0
0.3125 0.03125 0
0.25 0.03125 0
0.28125 0.03125 0
0.25 0.0625 0
0.28125 0.0625 0
0.28125 0.03125 0
0.3125 0.03125 0
0.28125 0.0625 0
0.3125 0.0625 0
0.3125 0 0
0.34375 0 0
0.3125 0.03125 0
0.34375 0.03125 0
0.34375 0 0
0.375 0 0
0.34375 0.03125 0
0.375 0.03125 0
0.3125 0.03125 0
0.34375 0.03125 0
0.3125 0.0625 0
0.34375 0.0625 0
0.34375 0.03125 0
0.375 0.03125 0
0.34375 0.0625 0
0.375 0.0625 0
0.25 0.0625 0
0.28125 0.0625 0
0.25 0.09375 0
0.28125 0.09375 0
0.28125 0.0625 0
0.3125 0.0625 0
0.28125 0.09375 0
0.3125 0.09375 0
0.25 0.09375 0
0.28125 0.09375 0
0.25 0.125 0
0.28125 0.125 0
0.28125 0.09375 0
0.3125 0.09375 0
0.28125 0.125 0
0.3125 0.125 0
0.3125 0.0625 0
0.34375 0.0625 0
0.3125 0.09375 0
0.34375 0.09375 0
0.34375 0.0625 0
0.375 0.0625 0
0.34375 0.09375 0
0.375 0.09375 0
0.3125 0.09375 0
0.34375 0.09375 0
0.3125 0.125 0
0.34375 0.125 0
0.34375 0.09375 0
0.375 0.09375 0
0.34375 0.125 0
0.375 0.125 0
0.375 0 0
0.40625 0 0
0.375 0.03125 0
0.40625 0.03125 0
0.40625 0 0
0.4375 0 0
0.40625 0.03125 0
0.4375 0.03125 0
0.375 0.03125 0
0.40625 0.03125 0
0.375 0.0625 0
0.40625 0.0625 0
0.40625 0.03125 0
0.4375 0.03125 0
0.40625 0.0625 0
0.4375 0.0625 0
0.4375 0 0
0.46875 0 0
0.4375 0.03125 0
0.46875 0.03125 0
0.46875 0 0
0.5 0 0
0.46875 0.03125 0
0.5 0.03125 0
0.4375 0.03125 0
0.46875 0.03125 0
0.4375 0.0625 0
0.46875 0.0625 0
0.46875 0.03125 0
0.5 0.03125 0
0.46875 0.0625 0
0.5 0.0625 0
0.375 0.0625 0
0.40625 0.0625 0
0.375 0.09375 0
0.40625 0.09375 0
0.40625 0.0625 0
0.4375 0.0625 0
0.40625 0.09375 0
0.4375 0.09375 0
0.375 0.09375 0
0.40625 0.09375 0
0.375 0.125 0
0.40625 0.125 0
0.40625 0.09375 0
0.4375 0.09375 0
0.40625 0.125 0
0.4375 0.125 0
0.4375 0.0625 0
0.46875 0.0625 0
0.4375 0.09375 0
0.46875 0.09375 0
0.46875 0.0625 0
0.5 0.0625 0
0.46875 0.09375 0
0.5 0.09375 0
0.4375 0.09375 0
0.46875 0.09375 0
0.4375 0.125 0
0.46875 0.125 0
0.46875 0.09375 0
0.5 0.09375 0
0.46875 0.125 0
0.5 0.125 0
0.25 0.125 0
0.28125 0.125 0
0.25 0.15625 0
0.28125 0.15625 0
0.28125 0.125 0
0.3125 0.125 0
0.28125 0.15625 0
0.3125 0.15625 0
0.25 0.15625 0
0.28125 0.15625 0
0.25 0.1875 0
0.28125 0.1875 0
0.28125 0.15625 0
0.3125 0.15625 0
0.28125 0.1875 0
0.3125 0.1875 0
0.3125 0.125 0
0.34375 0.125 0
0.3125 0.15625 0
0.34375 0.15625 0
0.34375 0.125 0
0.375 0.125 0
0.34375 0.15625 0
0.375 0.15625 0
0.3125 0.15625 0
0.34375 0.15625 0
0.3125 0.1875 0
0.34375 0.1875 0
0.34375 0.15625 0
0.375 0.15625 0
0.34375 0.1875 0
0.375 0.1875 0
0.25 0.1875 0
0.28125 0.1875 0
0.25 0.21875 0
0.28125 0.21875 0
0.28125 0.1875 0
0.3125 0.1875 0
0.28125 0.21875 0
0.3125 0.21875 0
0.25 0.21875 0
0.28125 0.21875 0
0.25 0.25 0
0.28125 0.25 0
0.28125 0.21875 0
0.3125 0.21875 0
0.28125 0.25 0
0.3125 0.25 0
0.3125 0.1875 0
0.34375 0.1875 0
0.3125 0.21875 0
0.34375 0.21875 0
0.34375 0.1875 0
0.375 0.1875 0
0.34375 0.21875 0
0.375 0.21875 0
0.3125 0.21875 0
0.34375 0.21875 0
0.3125 0.25 0
0.34375 0.25 0
0.34375 0.21875 0
0.375 0.21875 0
0.34375 0.25 0
0.375 0.25 0
0.375 0.125 0
0.40625 0.125 0
0.375 0.15625 0
0.40625 0.15625 0
0.40625 0.125 0
0.4375 0.125 0
0.40625 0.15625 0
0.4375 0.15625 0
0.375 0.15625 0
0.40625 0.15625 0
0.375 0.1875 0
0.40625 0.1875 0
0.40625 0.15625 0
0.4375 0.15625 0
0.40625 0.1875 0
0.4375 0.1875 0
0.4375 0.125 0
0.46875 0.125 0
0.4375 0.15625 0
0.46875 0.15625 0
0.46875 0.125 0
0.5 0.125 0
0.46875 0.15625 0
0.5 0.15625 0
0.4375 0.15625 0
0.46875 0.15625 0
0.4375 0.1875 0
0.46875 0.1875 0
0.46875 0.15625 0
0.5 0.15625 0
0.46875 0.1875 0
0.5 0.1875 0
0.375 0.1875 0
0.40625 0.1875 0
0.375 0.21875 0
0.40625 0.21875 0
0.40625 0.1875 0
0.4375 0.1875 0
0.40625 0.21875 0
0.4375 0.21875 0
0.375 0.21875 0
0.40625 0.21875 0
0.375 0.25 0
0.40625 0.25 0
0.40625 0.21875 0
0.4375 0.21875 0
0.40625 0.25 0
0.4375 0.25 0
0.4375 0.1875 0
0.46875 0.1875 0
0.4375 0.21875 0
0.46875 0.21875 0
0.46875 0.1875 0
0.5 0.1875 0
0.46875 0.21875 0
0.5 0.21875 0
0.4375 0.21875 0
0.46875 0.21875 0
0.4375 0.25 0
0.46875 0.25 0
0.46875 0.21875 0
0.5 0.21875 0
0.46875 0.25 0
0.5 0.25 0
0 0.25 0
0.03125 0.25 0
0 0.28125 0
0.03125 0.28125 0
0.03125 0.25 0
0.0625 0.25 0
0.03125 0.28125 0
0.0625 0.28125 0
0 0.28125 0
0.03125 0.28125 0
0 0.3125 0
0.03125 0.3125 0
0.03125 0.28125 0
0.0625 0.28125 0
0.03125 0.3125 0
0.0625 0.3125 0
0.0625 0.25 0
0.09375 0.25 0
0.0625 0.28125 0
0.09375 0.28125 0
0.09375 0.25 0
0.125 0.25 0
0.09375 0.28125 0
0.125 0.28125 0
0.0625 0.28125 0
0.09375 0.28125 0
0.0625 0.3125 0
0.09375 0.3125 0
0.09375 0.28125 0
0.125 0.28125 0
0.09375 0.3125 0
0.125 0.3125 0
0 0.3125 0
0.03125 0.3125 0
0 0.34375 0
0.03125 0.34375 0
0.03125 0.3125 0
0.0625 0.3125 0
0.03125 0.34375 0
0.0625 0.34375 0
0 0.34375 0
0.03125 0.34375 0
0 0.375 0
0.03125 0.375 0
0.03125 0.34375 0
0.0625 0.34375 0
0.03125 0.375 0
0.0625 0.375 0
0.0625 0.3125 0
0.09375 0.3125 0
0.0625 0.34375 0
0.09375 0.34375 0
0.09375 0.3125 0
0.125 0.3125 0
0.09375 0.34375 0
0.125 0.34375 0
0.0625 0.34375 0
0.09375 0.34375 0
0.0625 0.375 0
0.09375 0.375 0
0.09375 0.34375 0
0.125 0.34375 0
0.09375 0.375 0
0.125 0.375 0
0.125 0.25 0
0.15625 0.25 0
0.125 0.28125 0
0.15625 0.28125 0
0.15625 0.25 0
0.1875 0.25 0
0.15625 0.28125 0
0.1875 0.28125 0
0.125 0.28125 0
0.15625 0.28125 0
0.125 0.3125 0
0.15625 0.3125 0
0.15625 0.28125 0
0.1875 0.28125 0
0.15625 0.3125 0
0.1875 0.3125 0
0.1875 0.25 0
0.21875 0.25 0
0.1875 0.28125 0
0.21875 0.28125 0
0.21875 0.25 0
0.25 0.25 0
0.21875 0.28125 0
0.25 0.28125 0
0.1875 0.28125 0
0.21875 0.28125 0
0.1875 0.3125 0
0.21875 0.3125 0
0.21875 0.28125 0
0.25 0.28125 0
0.21875 0.3125 0
0.25 0.3125 0
0.125 0.3125 0
0.15625 0.3125 0
0.125 0.34375 0
0.15625 0.34375 0
0.15625 0.3125 0
0.1875 0.3125 0
0.15625 0.34375 0
0.1875 0.34375 0
0.125 0.34375 0
[...]
POINT_DATA 4096
SCALARS p double 1
LOOKUP_TABLE default
-6.9269e-06 7.41735e-05 -9.40164e-05 -1.1087e-05 7.41735e-05 0.000317193 -1.1087e-05 0.000120856 -9.40164e-05 -1.1087e-05 -0.000343482 -0.000146178 -1.1087e-05 0.000120856 -0.000146178 -1.08753e-05 0.000317193 0.000578345 0.000120856 0.000263953 0.000578345 0.000761928 0.000263953 0.000358176 0.000120856 0.000263953 -1.08753e-05 0.000123274 0.000263953 0.000358176 0.000123274 0.000195942 -0.000343482 -0.000146178 -0.000617555 -0.000294241 -0.000146178 -1.08753e-05 -0.000294241 -0.000141388 -0.000617555 -0.000294241 -0.000822333 -0.000392563 -0.000294241 -0.000141388 -0.000392563 -0.000205535 -1.08753e-05 0.000123274 -0.000141388 -2.26773e-06 0.000123274 0.000195942 -2.26773e-06 5.90239e-05 -0.000141388 -2.26773e-06 -0.000205535 -4.29156e-05 -2.26773e-06 5.90239e-05 -4.29156e-05 2.43135e-05 0.000761928 0.000822977 0.000358176 0.000373325 0.000822977 0.000745716 0.000373325 0.000293957 0.000358176 0.000373325 0.000195942 0.000189611 0.000373325 0.000293957 0.000189611 8.99157e-05 0.000745716 0.00052839 0.000293957 0.000114961 0.00052839 0.000176205 0.000114961 -0.000162967 0.000293957 0.000114961 8.99157e-05 -0.000108829 0.000114961 -0.000162967 -0.000108829 -0.000407334 0.000195942 0.000189611 5.90239e-05 4.19076e-05 0.000189611 8.99157e-05 4.19076e-05 -6.29166e-05 5.90239e-05 4.19076e-05 2.43135e-05 7.26828e-06 4.19076e-05 -6.29166e-05 7.26828e-06 -9.88305e-05 8.99157e-05 -0.000108829 -6.29166e-05 -0.000258881 -0.000108829 -0.000407334 -0.000258881 -0.000546611 -6.29166e-05 -0.000258881 -9.88305e-05 -0.000294665 -0.000258881 -0.000546611 -0.000294665 -0.000579887 -0.000822333 -0.000392563 -0.000910257 -0.000408215 -0.000392563 -0.000205535 -0.000408215 -0.000181009 -0.000910257 -0.000408215 -0.000858279 -0.000319332 -0.000408215 -0.000181009 -0.000319332 -4.5481e-05 -0.000205535 -4.29156e-05 -0.000181009 7.99942e-06 -4.29156e-05 2.43135e-05 7.99942e-06 8.81456e-05 -0.000181009 7.99942e-06 -4.5481e-05 0.000168642 7.99942e-06 8.81456e-05 0.000168642 0.00026498 -0.000858279 -0.000319332 -0.000653984 -0.00011194 -0.000319332 -4.5481e-05 -0.00011194 0.000217006 -0.000653984 -0.00011194 -0.000289326 0.000224379 -0.00011194 0.000217006 0.000224379 0.000619706 -4.5481e-05 0.000168642 0.000217006 0.000453121 0.000168642 0.00026498 0.000453121 0.000566661 0.000217006 0.000453121 0.000619706 0.000874606 0.000453121 0.000566661 0.000874606 0.00100556 2.43135e-05 7.26828e-06 8.81456e-05 7.699e-05 7.26828e-06 -9.88305e-05 7.699e-05 -2.65343e-05 8.81456e-05 7.699e-05 0.00026498 0.000262429 7.699e-05 -2.65343e-05 0.000262429 0.000162903 -9.88305e-05 -0.000294665 -2.65343e-05 -0.000220679 -0.000294665 -0.000579887 -0.000220679 -0.000503965 -2.65343e-05 -0.000220679 0.000162903 -3.00153e-05 -0.000220679 -0.000503965 -3.00153e-05 -0.000313828 0.00026498 0.000262429 0.000566661 0.000573357 0.000262429 0.000162903 0.000573357 0.000477812 0.000566661 0.000573357 0.00100556 0.00102103 0.000573357 0.000477812 0.00102103 0.000928436 0.000162903 -3.00153e-05 0.000477812 0.00028482 -3.00153e-05 -0.000313828 0.00028482 -2.29568e-06 0.000477812 0.00028482 0.000928436 0.000733302 0.00028482 -2.29568e-06 0.000733302 0.000439609 0.000176205 -0.000302513 -0.000162967 -0.000535926 -0.000302513 -0.000898139 -0.000535926 -0.000998154 -0.000162967 -0.000535926 -0.000407334 -0.00080308 -0.000535926 -0.000998154 -0.00080308 -0.0012913 -0.000898139 -0.00160046 -0.000998154 -0.00154273 -0.00160046 -0.00239867 -0.00154273 -0.00216167 -0.000998154 -0.00154273 -0.0012913 -0.00186567 -0.00154273 -0.00216167 -0.00186567 -0.00251838 -0.000407334 -0.00080308 -0.000546611 -0.000924421 -0.00080308 -0.0012913 -0.000924421 -0.00138867 -0.000546611 -0.000924421 -0.000579887 -0.000952791 -0.000924421 -0.00138867 -0.000952791 -0.0014102 -0.0012913 -0.00186567 -0.00138867 -0.00193419 -0.00186567 -0.00251838 -0.00193419 -0.00255427 -0.00138867 -0.00193419 -0.0014102 -0.0019476 -0.00193419 -0.00255427 -0.0019476 -0.00255902 -0.00239867 -0.00328112 -0.00216167 -0.00284608 -0.00328112 -0.00423499 -0.00284608 -0.00358585 -0.00216167 -0.00284608 -0.00251838 -0.0032404 -0.00284608 -0.00358585 -0.0032404 -0.00402118 -0.00423499 -0.0052459 -0.00358585 -0.00436962 -0.0052459 -0.00629775 -0.00436962 -0.00518459 -0.00358585 -0.00436962 -0.00402118 -0.0048487 -0.00436962 -0.00518459 -0.0048487 -0.00570933 -0.00251838 -0.0032404 -0.00255427 -0.00324084 -0.0032404 -0.00402118 -0.00324084 -0.0039842 -0.00255427 -0.00324084 -0.00255902 -0.00323706 -0.00324084 -0.0039842 -0.00323706 -0.00397259 -0.00402118 -0.0048487 -0.0039842 -0.00477309 -0.0048487 -0.00570933 -0.00477309 -0.00559462 -0.0039842 -0.00477309 -0.00397259 -0.00475482 -0.00477309 -0.00559462 -0.00475482 -0.00557116 -0.000579887 -0.000952791 -0.000503965 -0.000874351 -0.000952791 -0.0014102 -0.000874351 -0.00132885 -0.000503965 -0.000874351 -0.000313828 -0.000686091 -0.000874351 -0.00132885 -0.000686091 -0.0011439 -0.0014102 -0.0019476 -0.00132885 -0.00186345 -0.0019476 -0.00255902 -0.00186345 -0.00247278 -0.00132885 -0.00186345 -0.0011439 -0.0016836 -0.00186345 -0.00247278 -0.0016836 -0.00230036 -0.000313828 -0.000686091 -2.29568e-06 -0.000380766 -0.000686091 -0.0011439 -0.000380766 -0.000847791 -2.29568e-06 -0.000380766 0.000439609 5.03539e-05 -0.000380766 -0.000847791 5.03539e-05 -0.000431815 -0.0011439 -0.0016836 -0.000847791 -0.00140001 -0.0016836 -0.00230036 -0.00140001 -0.00203306 -0.000847791 -0.00140001 -0.000431815 -0.00100387 -0.00140001 -0.00203306 -0.00100387 -0.00166195 -0.00255902 -0.00323706 -0.00247278 -0.00315002 -0.00323706 -0.00397259 -0.00315002 -0.00388661 -0.00247278 -0.00315002 -0.00230036 -0.00298786 -0.00315002 -0.00388661 -0.00298786 -0.00373799 -0.00397259 -0.00475482 -0.00388661 -0.00467219 -0.00475482 -0.00557116 -0.00467219 -0.00549444 -0.00388661 -0.00467219 -0.00373799 -0.00454076 -0.00467219 -0.00549444 -0.00454076 -0.00538401 -0.00230036 -0.00298786 -0.00203306 -0.00274111 -0.00298786 -0.00373799 -0.00274111 -0.00351653 -0.00203306 -0.00274111 -0.00166195 -0.00240076 -0.00274111 -0.00351653 -0.00240076 -0.00321312 -0.00373799 -0.00454076 -0.00351653 -0.00434963 -0.00454076 -0.00538401 -0.00434963 -0.00522832 -0.00351653 -0.00434963 -0.00321312 -0.00408969 -0.00434963 -0.00522832 -0.00408969 -0.00501849 -0.000289326 0.000224379 0.00024293 0.000698675 0.000224379 0.000619706 0.000698675 0.00117447 0.00024293 0.000698675 0.00095122 0.00132042 0.000698675 0.00117447 0.00132042 0.00189354 0.000619706 0.000874606 0.00117447 0.00144556 0.000874606 0.00100556 0.00144556 0.00159413 0.00117447 0.00144556 0.00189354 0.00217909 0.00144556 0.00159413 0.00217909 0.00234588 0.00095122 0.00132042 0.00184632 0.00210047 0.00132042 0.00189354 0.00210047 0.00279042 0.00184632 0.00210047 0.00294201 0.00305191 0.00210047 0.00279042 0.00305191 0.00388091 0.00189354 0.00217909 0.00279042 0.00308951 0.00217909 0.00234588 0.00308951 0.00327566 0.00279042 0.00308951 0.00388091 0.00419338 0.00308951 0.00327566 0.00419338 0.00440063 0.00100556 0.00102103 0.00159413 0.00161752 0.00102103 0.000928436 0.00161752 0.00152637 0.00159413 0.00161752 0.00234588 0.00237629 0.00161752 0.00152637 0.00237629 0.00228497 0.000928436 0.000733302 0.00152637 0.00132668 0.000733302 0.000439609 0.00132668 0.00102299 0.00152637 0.00132668 0.00228497 0.00207825 0.00132668 0.00102299 0.00207825 0.00176124 0.00234588 0.00237629 0.00327566 0.00331245 0.00237629 0.00228497 0.00331245 0.00321949 0.00327566 0.00331245 0.00440063 0.00444348 0.00331245 0.00321949 0.00444348 0.00434773 0.00228497 0.00207825 0.00321949 0.0030035 0.00207825 0.00176124 0.0030035 0.00267023 0.00321949 0.0030035 0.00434773 0.00412061 0.0030035 0.00267023 0.00412061 0.0037687 0.00294201 0.00305191 0.0042555 0.00419042 0.00305191 0.00388091 0.00419042 0.00518359 0.0042555 0.00419042 0.00580776 0.00553506 0.00419042 0.00518359 0.00553506 0.00672078 0.00388091 0.00419338 0.00518359 0.00550991 0.00419338 0.00440063 0.00550991 0.00574058 0.00518359 0.00550991 0.00672078 0.00706189 0.00550991 0.00574058 0.00706189 0.0073188 0.00580776 0.00553506 0.00762409 0.00710874 0.00553506 0.00672078 0.00710874 0.00851921 0.00762409 0.00710874 0.00973502 0.00893931 0.00710874 0.00851921 0.00893931 0.0106114 0.00672078 0.00706189 0.00851921 0.00887643 0.00706189 0.0073188 0.00887643 0.0091626 0.00851921 0.00887643 0.0106114 0.0109861 0.00887643 0.0091626 0.0109861 0.0113044 0.00440063 0.00444348 0.00574058 0.00578956 0.00444348 0.00434773 0.00578956 0.0056902 0.00574058 0.00578956 0.0073188 0.00737413 0.00578956 0.0056902 0.00737413 0.00727054 0.00434773 0.00412061 0.0056902 0.00545055 0.00412061 0.0037687 0.00545055 0.00507832 0.0056902 0.00545055 0.00727054 0.00701734 0.00545055 0.00507832 0.00701734 0.00662378 0.0073188 0.00737413 0.0091626 0.00922441 0.00737413 0.00727054 0.00922441 0.00911585 0.0091626 0.00922441 0.0113044 0.0113721 0.00922441 0.00911585 0.0113721 0.0112572 0.00727054 0.00701734 0.00911585 0.0088482 0.00701734 0.00662378 0.0088482 0.00843279 0.00911585 0.0088482 0.0112572 0.0109737 0.0088482 0.00843279 0.0109737 0.0105359 0.000439609 5.03539e-05 0.00102299 0.000618405 5.03539e-05 -0.000431815 0.000618405 0.000115391 0.00102299 0.000618405 0.00176124 0.00133709 0.000618405 0.000115391 0.00133709 0.000808003 -0.000431815 -0.00100387 0.000115391 -0.000483467 -0.00100387 -0.00166195 -0.000483467 -0.00117489 0.000115391 -0.000483467 0.000808003 0.000176014 -0.000483467 -0.00117489 0.000176014 -0.000556341 0.00176124 0.00133709 0.00267023 0.00222287 0.00133709 0.000808003 0.00222287 0.00166328 0.00267023 0.00222287 0.0037687 0.00329527 0.00222287 0.00166328 0.00329527 0.00270175 0.000808003 0.000176014 0.00166328 0.000992782 0.000176014 -0.000556341 0.000992782 0.000212975 0.00166328 0.000992782 0.00270175 0.00198865 0.000992782 0.000212975 0.00198865 0.00115637 -0.00166195 -0.00240076 -0.00117489 -0.00195419 -0.00240076 -0.00321312 -0.00195419 -0.00281482 -0.00117489 -0.00195419 -0.000556341 -0.00138518 -0.00195419 -0.00281482 -0.00138518 -0.00230473 -0.00321312 -0.00408969 -0.00281482 -0.00374783 -0.00408969 -0.00501849 -0.00374783 -0.0047414 -0.00281482 -0.00374783 -0.00230473 -0.00330665 -0.00374783 -0.0047414 -0.00330665 -0.00437952 -0.000556341 -0.00138518 0.000212975 -0.000673313 -0.00138518 -0.00230473 -0.000673313 -0.00166137 0.000212975 -0.000673313 0.00115637 0.000206366 -0.000673313 -0.00166137 0.000206366 -0.000858138 -0.00230473 -0.00330665 -0.00166137 -0.00274382 -0.00330665 -0.00437952 -0.00274382 -0.00390996 -0.00166137 -0.00274382 -0.000858138 -0.00203119 -0.00274382 -0.00390996 -0.00203119 -0.00330331 0.0037687 0.00329527 0.00507832 0.00457692 0.00329527 0.00270175 0.00457692 0.00394739 0.00507832 0.00457692 0.00662378 0.00609358 0.00457692 0.00394739 0.00609358 0.00542739 0.00270175 0.00198865 0.00394739 0.00318922 0.00198865 0.00115637 0.00318922 0.00230138 0.00394739 0.00318922 0.00542739 0.00462357 0.00318922 0.00230138 0.00462357 0.00367946 0.00662378 0.00609358 0.00843279 0.00787393 0.00609358 0.00542739 0.00787393 0.00717192 0.00843279 0.00787393 0.0105359 0.00994909 0.00787393 0.00717192 0.00994909 0.00921331 0.00542739 0.00462357 0.00717192 0.00632396 0.00462357 0.00367946 0.00632396 0.00532558 0.00717192 0.00632396 0.00921331 0.0083247 0.00632396 0.00532558 0.0083247 0.00727691 0.00115637 0.000206366 0.00230138 0.00128357 0.000206366 -0.000858138 0.00128357 0.000137046 0.00230138 0.00128357 0.00367946 0.00259259 0.00128357 0.000137046 0.00259259 0.00136174 -0.000858138 -0.00203119 0.000137046 -0.00113427 -0.00203119 -0.00330331 -0.00113427 -0.0025229 0.000137046 -0.00113427 0.00136174 -1.20044e-05 -0.00113427 -0.0025229 -1.20044e-05 -0.00152407 0.00367946 0.00259259 0.00532558 0.00417185 0.00259259 0.00136174 0.00417185 0.00285848 0.00532558 0.00417185 0.00727691 0.00606235 0.00417185 0.00285848 0.00606235 0.00467331 0.00136174 -1.20044e-05 0.00285848 0.00138301 -1.20044e-05 -0.00152407 0.00138301 -0.000254056 0.00285848 0.00138301 0.00467331 0.003103 0.00138301 -0.000254056 0.003103 0.00134683 -0.00629775 -0.00737252 -0.00518459 -0.00601657 -0.00737252 -0.00845034 -0.00601657 -0.00684993 -0.00518459 -0.00601657 -0.00570933 -0.00658795 -0.00601657 -0.00684993 -0.00658795 -0.0074679 -0.00845034 -0.00950961 -0.00684993 -0.00766779 -0.00950961 -0.0105273 -0.00766779 -0.00845238 -0.00684993 -0.00766779 -0.0074679 -0.0083313 -0.00766779 -0.00845238 -0.0083313 -0.00915934 -0.00570933 -0.00658795 -0.00559462 -0.00643434 -0.00658795 -0.0074679 -0.00643434 -0.00727624 -0.00559462 -0.00643434 -0.00557116 -0.00640735 -0.00643434 -0.00727624 -0.00640735 -0.00724745 -0.0074679 -0.0083313 -0.00727624 -0.00810311 -0.0083313 -0.00915934 -0.00810311 -0.00889685 -0.00727624 -0.00810311 -0.00724745 -0.0080742 -0.00810311 -0.00889685 -0.0080742 -0.00886932 -0.0105273 -0.0114794 -0.00845238 -0.00918541 -0.0114794 -0.0123416 -0.00918541 -0.0098486 -0.00845238 -0.00918541 -0.00915934 -0.00993285 -0.00918541 -0.0098486 -0.00993285 -0.0106329 -0.0123416 -0.01309 -0.0098486 -0.0104246 -0.01309 -0.0137025 -0.0104246 -0.0108978 -0.0098486 -0.0104246 -0.0106329 -0.0112417 -0.0104246 -0.0108978 -0.0112417 -0.0117438 -0.00915934 -0.00993285 -0.00889685 -0.00963899 -0.00993285 -0.0106329 -0.00963899 -0.0103114 -0.00889685 -0.00963899 -0.00886932 -0.00961404 -0.00963899 -0.0103114 -0.00961404 -0.0102899 -0.0106329 -0.0112417 -0.0103114 -0.0108973 -0.0112417 -0.0117438 -0.0108973 -0.0113821 -0.0103114 -0.0108973 -0.0102899 -0.0108798 -0.0108973 -0.0113821 -0.0108798 -0.0113688 -0.00557116 -0.00640735 -0.00549444 -0.0063392 -0.00640735 -0.00724745 -0.0063392 -0.0071904 -0.00549444 -0.0063392 -0.00538401 -0.00625348 -0.0063392 -0.0071904 -0.00625348 -0.00713275 -0.00724745 -0.0080742 -0.0071904 -0.00803042 -0.0080742 -0.00886932 -0.00803042 -0.00884044 -0.0071904 -0.00803042 -0.00713275 -0.00800351 -0.00803042 -0.00884044 -0.00800351 -0.0088459 -0.00538401 -0.00625348 -0.00522832 -0.00613813 -0.00625348 -0.00713275 -0.00613813 -0.00706206 -0.00522832 -0.00613813 -0.00501849 -0.00598475 -0.00613813 -0.00706206 -0.00598475 -0.00697071 -0.00713275 -0.00800351 -0.00706206 -0.00798083 -0.00800351 -0.0088459 -0.00798083 -0.0088731 -0.00706206 -0.00798083 -0.00697071 -0.00795581 -0.00798083 -0.0088731 -0.00795581 -0.00891681 -0.00886932 -0.00961404 -0.00884044 -0.00960093 -0.00961404 -0.0102899 -0.00960093 -0.0102925 -0.00884044 -0.00960093 -0.0088459 -0.00963909 -0.00960093 -0.0102925 -0.00963909 -0.0103622 -0.0102899 -0.0108798 -0.0102925 -0.0108971 -0.0108798 -0.0113688 -0.0108971 -0.0113986 -0.0102925 -0.0108971 -0.0103622 -0.0109952 -0.0108971 -0.0113986 -0.0109952 -0.0115203 -0.0088459 -0.00963909 -0.0088731 -0.00971616 -0.00963909 -0.0103622 -0.00971616 -0.0104869 -0.0088731 -0.00971616 -0.00891681 -0.00982855 -0.00971616 -0.0104869 -0.00982855 -0.0106649 -0.0103622 -0.0109952 -0.0104869 -0.0111628 -0.0109952 -0.0115203 -0.0111628 -0.0117236 -0.0104869 -0.0111628 -0.0106649 -0.0114002 -0.0111628 -0.0117236 -0.0114002 -0.0120108 -0.0137025 -0.0141599 -0.0108978 -0.0112556 -0.0141599 -0.0144481 -0.0112556 -0.0114906 -0.0108978 -0.0112556 -0.0117438 -0.0121274 -0.0112556 -0.0114906 -0.0121274 -0.012386 -0.0144481 -0.0145626 -0.0114906 -0.0115996 -0.0145626 -0.0145031 -0.0115996 -0.0116023 -0.0114906 -0.0115996 -0.012386 -0.0125184 -0.0115996 -0.0116023 -0.0125184 -0.0125426 -0.0117438 -0.0121274 -0.0113821 -0.0117549 -0.0121274 -0.012386 -0.0117549 -0.0120099 -0.0113821 -0.0117549 -0.0113688 -0.0117456 -0.0117549 -0.0120099 -0.0117456 -0.0120037 -0.012386 -0.0125184 -0.0120099 -0.0121456 -0.0125184 -0.0125426 -0.0121456 -0.0121784 -0.0120099 -0.0121456 -0.0120037 -0.0121406 -0.0121456 -0.0121784 -0.0121406 -0.0121701 -0.0145031 -0.0143268 -0.0116023 -0.0114599 -0.0143268 -0.0140406 -0.0114599 -0.011528 -0.0116023 -0.0114599 -0.0125426 -0.0124272 -0.0114599 -0.011528 -0.0124272 -0.0124893 -0.0140406 -0.0131203 -0.011528 -0.0102675 -0.0131203 -0.0142802 -0.0102675 -0.0129426 -0.011528 -0.0102675 -0.0124893 -0.0112393 -0.0102675 -0.0129426 -0.0112393 -0.0133351 -0.0125426 -0.0124272 -0.0121784 -0.0120696 -0.0124272 -0.0124893 -0.0120696 -0.0121342 -0.0121784 -0.0120696 -0.0121701 -0.0120513 -0.0120696 -0.0121342 -0.0120513 -0.0120846 -0.0124893 -0.0112393 -0.0121342 -0.0108506 -0.0112393 -0.0133351 -0.0108506 -0.0130393 -0.0121342 -0.0108506 -0.0120846 -0.01077 -0.0108506 -0.0130393 -0.01077 -0.0127814 -0.0113688 -0.0117456 -0.0113986 -0.0117845 -0.0117456 -0.0120037 -0.0117845 -0.0120474 -0.0113986 -0.0117845 -0.0115203 -0.0119234 -0.0117845 -0.0120474 -0.0119234 -0.0121953 -0.0120037 -0.0121406 -0.0120474 -0.0121832 -0.0121406 -0.0121701 -0.0121832 -0.0122039 -0.0120474 -0.0121832 -0.0121953 -0.0123306 -0.0121832 -0.0122039 -0.0123306 -0.01234 -0.0115203 -0.0119234 -0.0117236 -0.0121529 -0.0119234 -0.0121953 -0.0121529 -0.0124395 -0.0117236 -0.0121529 -0.0120108 -0.0124772 -0.0121529 -0.0124395 -0.0124772 -0.0127859 -0.0121953 -0.0123306 -0.0124395 -0.0125765 -0.0123306 -0.01234 -0.0125765 -0.0125745 -0.0124395 -0.0125765 -0.0127859 -0.0129286 -0.0125765 -0.0125745 -0.0129286 -0.0129161 -0.0121701 -0.0120513 -0.0122039 -0.0120659 -0.0120513 -0.0120846 -0.0120659 -0.0120653 -0.0122039 -0.0120659 -0.01234 -0.012179 -0.0120659 -0.0120653 -0.012179 -0.0121436 -0.0120846 -0.01077 -0.0120653 -0.0107077 -0.01077 -0.0127814 -0.0107077 -0.0126516 -0.0120653 -0.0107077 -0.0121436 -0.0107395 -0.0107077 -0.0126516 -0.0107395 -0.0126305 -0.01234 -0.012179 -0.0125745 -0.0123886 -0.012179 -0.0121436 -0.0123886 -0.0123192 -0.0125745 -0.0123886 -0.0129161 -0.0127036 -0.0123886 -0.0123192 -0.0127036 -0.0126001 -0.0121436 -0.0107395 -0.0123192 -0.0108604 -0.0107395 -0.0126305 -0.0108604 -0.0127264 -0.0123192 -0.0108604 -0.0126001 -0.0110755 -0.0108604 -0.0127264 -0.0110755 -0.0129357 -0.00501849 -0.00598475 -0.0047414 -0.00578052 -0.00598475 -0.00697071 -0.00578052 -0.00684662 -0.0047414 -0.00578052 -0.00437952 -0.0055082 -0.00578052 -0.00684662 -0.0055082 -0.00667336 -0.00697071 -0.00795581 -0.00684662 -0.00791757 -0.00795581 -0.00891681 -0.00791757 -0.00896789 -0.00684662 -0.00791757 -0.00667336 -0.00785123 -0.00791757 -0.00896789 -0.00785123 -0.00901369 -0.00437952 -0.0055082 -0.00390996 -0.00514484 -0.0055082 -0.00667336 -0.00514484 -0.00642862 -0.00390996 -0.00514484 -0.00330331 -0.00466034 -0.00514484 -0.00642862 -0.00466034 -0.00608243 -0.00667336 -0.00785123 -0.00642862 -0.00773596 -0.00785123 -0.00901369 -0.00773596 -0.00903589 -0.00642862 -0.00773596 -0.00608243 -0.00754303 -0.00773596 -0.00903589 -0.00754303 -0.00900836 -0.00891681 -0.00982855 -0.00896789 -0.00996935 -0.00982855 -0.0106649 -0.00996935 -0.010892 -0.00896789 -0.00996935 -0.00901369 -0.0101288 -0.00996935 -0.010892 -0.0101288 -0.011162 -0.0106649 -0.0114002 -0.010892 -0.011706 -0.0114002 -0.0120108 -0.011706 -0.0123832 -0.010892 -0.011706 -0.011162 -0.0120778 -0.011706 -0.0123832 -0.0120778 -0.0128424 -0.00901369 -0.0101288 -0.00903589 -0.0102922 -0.0101288 -0.011162 -0.0102922 -0.0114645 -0.00903589 -0.0102922 -0.00900836 -0.0104375 -0.0102922 -0.0114645 -0.0104375 -0.0117832 -0.011162 -0.0120778 -0.0114645 -0.0125105 -0.0120778 -0.0128424 -0.0125105 -0.0133889 -0.0114645 -0.0125105 -0.0117832 -0.0129943 -0.0125105 -0.0133889 -0.0129943 -0.0140199 -0.00330331 -0.00466034 -0.0025229 -0.00401632 -0.00466034 -0.00608243 -0.00401632 -0.00559553 -0.0025229 -0.00401632 -0.00152407 -0.0031647 -0.00401632 -0.00559553 -0.0031647 -0.00491716 -0.00608243 -0.00754303 -0.00559553 -0.00723354 -0.00754303 -0.00900836 -0.00723354 -0.00889427 -0.00559553 -0.00723354 -0.00491716 -0.00675545 -0.00723354 -0.00889427 -0.00675545 -0.00864238 -0.00152407 -0.0031647 -0.000254056 -0.0020472 -0.0031647 -0.00491716 -0.0020472 -0.00398384 -0.000254056 -0.0020472 0.00134683 -0.000595698 -0.0020472 -0.00398384 -0.000595698 -0.00271855 -0.00491716 -0.00675545 -0.00398384 -0.00604118 -0.00675545 -0.00864238 -0.00604118 -0.00818313 -0.00398384 -0.00604118 -0.00271855 -0.00500523 -0.00604118 -0.00818313 -