# vtk DataFile Version 3.0
#This file was generated by the deal.II library on 2026/1/5 at 14:19:38
ASCII
DATASET UNSTRUCTURED_GRID

POINTS 4096 double
0 0 0
0.03125 0 0
0 0.03125 0
0.03125 0.03125 0
0.03125 0 0
0.0625 0 0
0.03125 0.03125 0
0.0625 0.03125 0
0 0.03125 0
0.03125 0.03125 0
0 0.0625 0
0.03125 0.0625 0
0.03125 0.03125 0
0.0625 0.03125 0
0.03125 0.0625 0
0.0625 0.0625 0
0.0625 0 0
0.09375 0 0
0.0625 0.03125 0
0.09375 0.03125 0
0.09375 0 0
0.125 0 0
0.09375 0.03125 0
0.125 0.03125 0
0.0625 0.03125 0
0.09375 0.03125 0
0.0625 0.0625 0
0.09375 0.0625 0
0.09375 0.03125 0
0.125 0.03125 0
0.09375 0.0625 0
0.125 0.0625 0
0 0.0625 0
0.03125 0.0625 0
0 0.09375 0
0.03125 0.09375 0
0.03125 0.0625 0
0.0625 0.0625 0
0.03125 0.09375 0
0.0625 0.09375 0
0 0.09375 0
0.03125 0.09375 0
0 0.125 0
0.03125 0.125 0
0.03125 0.09375 0
0.0625 0.09375 0
0.03125 0.125 0
0.0625 0.125 0
0.0625 0.0625 0
0.09375 0.0625 0
0.0625 0.09375 0
0.09375 0.09375 0
0.09375 0.0625 0
0.125 0.0625 0
0.09375 0.09375 0
0.125 0.09375 0
0.0625 0.09375 0
0.09375 0.09375 0
0.0625 0.125 0
0.09375 0.125 0
0.09375 0.09375 0
0.125 0.09375 0
0.09375 0.125 0
0.125 0.125 0
0.125 0 0
0.15625 0 0
0.125 0.03125 0
0.15625 0.03125 0
0.15625 0 0
0.1875 0 0
0.15625 0.03125 0
0.1875 0.03125 0
0.125 0.03125 0
0.15625 0.03125 0
0.125 0.0625 0
0.15625 0.0625 0
0.15625 0.03125 0
0.1875 0.03125 0
0.15625 0.0625 0
0.1875 0.0625 0
0.1875 0 0
0.21875 0 0
0.1875 0.03125 0
0.21875 0.03125 0
0.21875 0 0
0.25 0 0
0.21875 0.03125 0
0.25 0.03125 0
0.1875 0.03125 0
0.21875 0.03125 0
0.1875 0.0625 0
0.21875 0.0625 0
0.21875 0.03125 0
0.25 0.03125 0
0.21875 0.0625 0
0.25 0.0625 0
0.125 0.0625 0
0.15625 0.0625 0
0.125 0.09375 0
0.15625 0.09375 0
0.15625 0.0625 0
0.1875 0.0625 0
0.15625 0.09375 0
0.1875 0.09375 0
0.125 0.09375 0
0.15625 0.09375 0
0.125 0.125 0
0.15625 0.125 0
0.15625 0.09375 0
0.1875 0.09375 0
0.15625 0.125 0
0.1875 0.125 0
0.1875 0.0625 0
0.21875 0.0625 0
0.1875 0.09375 0
0.21875 0.09375 0
0.21875 0.0625 0
0.25 0.0625 0
0.21875 0.09375 0
0.25 0.09375 0
0.1875 0.09375 0
0.21875 0.09375 0
0.1875 0.125 0
0.21875 0.125 0
0.21875 0.09375 0
0.25 0.09375 0
0.21875 0.125 0
0.25 0.125 0
0 0.125 0
0.03125 0.125 0
0 0.15625 0
0.03125 0.15625 0
0.03125 0.125 0
0.0625 0.125 0
0.03125 0.15625 0
0.0625 0.15625 0
0 0.15625 0
0.03125 0.15625 0
0 0.1875 0
0.03125 0.1875 0
0.03125 0.15625 0
0.0625 0.15625 0
0.03125 0.1875 0
0.0625 0.1875 0
0.0625 0.125 0
0.09375 0.125 0
0.0625 0.15625 0
0.09375 0.15625 0
0.09375 0.125 0
0.125 0.125 0
0.09375 0.15625 0
0.125 0.15625 0
0.0625 0.15625 0
0.09375 0.15625 0
0.0625 0.1875 0
0.09375 0.1875 0
0.09375 0.15625 0
0.125 0.15625 0
0.09375 0.1875 0
0.125 0.1875 0
0 0.1875 0
0.03125 0.1875 0
0 0.21875 0
0.03125 0.21875 0
0.03125 0.1875 0
0.0625 0.1875 0
0.03125 0.21875 0
0.0625 0.21875 0
0 0.21875 0
0.03125 0.21875 0
0 0.25 0
0.03125 0.25 0
0.03125 0.21875 0
0.0625 0.21875 0
0.03125 0.25 0
0.0625 0.25 0
0.0625 0.1875 0
0.09375 0.1875 0
0.0625 0.21875 0
0.09375 0.21875 0
0.09375 0.1875 0
0.125 0.1875 0
0.09375 0.21875 0
0.125 0.21875 0
0.0625 0.21875 0
0.09375 0.21875 0
0.0625 0.25 0
0.09375 0.25 0
0.09375 0.21875 0
0.125 0.21875 0
0.09375 0.25 0
0.125 0.25 0
0.125 0.125 0
0.15625 0.125 0
0.125 0.15625 0
0.15625 0.15625 0
0.15625 0.125 0
0.1875 0.125 0
0.15625 0.15625 0
0.1875 0.15625 0
0.125 0.15625 0
0.15625 0.15625 0
0.125 0.1875 0
0.15625 0.1875 0
0.15625 0.15625 0
0.1875 0.15625 0
0.15625 0.1875 0
0.1875 0.1875 0
0.1875 0.125 0
0.21875 0.125 0
0.1875 0.15625 0
0.21875 0.15625 0
0.21875 0.125 0
0.25 0.125 0
0.21875 0.15625 0
0.25 0.15625 0
0.1875 0.15625 0
0.21875 0.15625 0
0.1875 0.1875 0
0.21875 0.1875 0
0.21875 0.15625 0
0.25 0.15625 0
0.21875 0.1875 0
0.25 0.1875 0
0.125 0.1875 0
0.15625 0.1875 0
0.125 0.21875 0
0.15625 0.21875 0
0.15625 0.1875 0
0.1875 0.1875 0
0.15625 0.21875 0
0.1875 0.21875 0
0.125 0.21875 0
0.15625 0.21875 0
0.125 0.25 0
0.15625 0.25 0
0.15625 0.21875 0
0.1875 0.21875 0
0.15625 0.25 0
0.1875 0.25 0
0.1875 0.1875 0
0.21875 0.1875 0
0.1875 0.21875 0
0.21875 0.21875 0
0.21875 0.1875 0
0.25 0.1875 0
0.21875 0.21875 0
0.25 0.21875 0
0.1875 0.21875 0
0.21875 0.21875 0
0.1875 0.25 0
0.21875 0.25 0
0.21875 0.21875 0
0.25 0.21875 0
0.21875 0.25 0
0.25 0.25 0
0.25 0 0
0.28125 0 0
0.25 0.03125 0
0.28125 0.03125 0
0.28125 0 0
0.3125 0 0
0.28125 0.03125 0
0.3125 0.03125 0
0.25 0.03125 0
0.28125 0.03125 0
0.25 0.0625 0
0.28125 0.0625 0
0.28125 0.03125 0
0.3125 0.03125 0
0.28125 0.0625 0
0.3125 0.0625 0
0.3125 0 0
0.34375 0 0
0.3125 0.03125 0
0.34375 0.03125 0
0.34375 0 0
0.375 0 0
0.34375 0.03125 0
0.375 0.03125 0
0.3125 0.03125 0
0.34375 0.03125 0
0.3125 0.0625 0
0.34375 0.0625 0
0.34375 0.03125 0
0.375 0.03125 0
0.34375 0.0625 0
0.375 0.0625 0
0.25 0.0625 0
0.28125 0.0625 0
0.25 0.09375 0
0.28125 0.09375 0
0.28125 0.0625 0
0.3125 0.0625 0
0.28125 0.09375 0
0.3125 0.09375 0
0.25 0.09375 0
0.28125 0.09375 0
0.25 0.125 0
0.28125 0.125 0
0.28125 0.09375 0
0.3125 0.09375 0
0.28125 0.125 0
0.3125 0.125 0
0.3125 0.0625 0
0.34375 0.0625 0
0.3125 0.09375 0
0.34375 0.09375 0
0.34375 0.0625 0
0.375 0.0625 0
0.34375 0.09375 0
0.375 0.09375 0
0.3125 0.09375 0
0.34375 0.09375 0
0.3125 0.125 0
0.34375 0.125 0
0.34375 0.09375 0
0.375 0.09375 0
0.34375 0.125 0
0.375 0.125 0
0.375 0 0
0.40625 0 0
0.375 0.03125 0
0.40625 0.03125 0
0.40625 0 0
0.4375 0 0
0.40625 0.03125 0
0.4375 0.03125 0
0.375 0.03125 0
0.40625 0.03125 0
0.375 0.0625 0
0.40625 0.0625 0
0.40625 0.03125 0
0.4375 0.03125 0
0.40625 0.0625 0
0.4375 0.0625 0
0.4375 0 0
0.46875 0 0
0.4375 0.03125 0
0.46875 0.03125 0
0.46875 0 0
0.5 0 0
0.46875 0.03125 0
0.5 0.03125 0
0.4375 0.03125 0
0.46875 0.03125 0
0.4375 0.0625 0
0.46875 0.0625 0
0.46875 0.03125 0
0.5 0.03125 0
0.46875 0.0625 0
0.5 0.0625 0
0.375 0.0625 0
0.40625 0.0625 0
0.375 0.09375 0
0.40625 0.09375 0
0.40625 0.0625 0
0.4375 0.0625 0
0.40625 0.09375 0
0.4375 0.09375 0
0.375 0.09375 0
0.40625 0.09375 0
0.375 0.125 0
0.40625 0.125 0
0.40625 0.09375 0
0.4375 0.09375 0
0.40625 0.125 0
0.4375 0.125 0
0.4375 0.0625 0
0.46875 0.0625 0
0.4375 0.09375 0
0.46875 0.09375 0
0.46875 0.0625 0
0.5 0.0625 0
0.46875 0.09375 0
0.5 0.09375 0
0.4375 0.09375 0
0.46875 0.09375 0
0.4375 0.125 0
0.46875 0.125 0
0.46875 0.09375 0
0.5 0.09375 0
0.46875 0.125 0
0.5 0.125 0
0.25 0.125 0
0.28125 0.125 0
0.25 0.15625 0
0.28125 0.15625 0
0.28125 0.125 0
0.3125 0.125 0
0.28125 0.15625 0
0.3125 0.15625 0
0.25 0.15625 0
0.28125 0.15625 0
0.25 0.1875 0
0.28125 0.1875 0
0.28125 0.15625 0
0.3125 0.15625 0
0.28125 0.1875 0
0.3125 0.1875 0
0.3125 0.125 0
0.34375 0.125 0
0.3125 0.15625 0
0.34375 0.15625 0
0.34375 0.125 0
0.375 0.125 0
0.34375 0.15625 0
0.375 0.15625 0
0.3125 0.15625 0
0.34375 0.15625 0
0.3125 0.1875 0
0.34375 0.1875 0
0.34375 0.15625 0
0.375 0.15625 0
0.34375 0.1875 0
0.375 0.1875 0
0.25 0.1875 0
0.28125 0.1875 0
0.25 0.21875 0
0.28125 0.21875 0
0.28125 0.1875 0
0.3125 0.1875 0
0.28125 0.21875 0
0.3125 0.21875 0
0.25 0.21875 0
0.28125 0.21875 0
0.25 0.25 0
0.28125 0.25 0
0.28125 0.21875 0
0.3125 0.21875 0
0.28125 0.25 0
0.3125 0.25 0
0.3125 0.1875 0
0.34375 0.1875 0
0.3125 0.21875 0
0.34375 0.21875 0
0.34375 0.1875 0
0.375 0.1875 0
0.34375 0.21875 0
0.375 0.21875 0
0.3125 0.21875 0
0.34375 0.21875 0
0.3125 0.25 0
0.34375 0.25 0
0.34375 0.21875 0
0.375 0.21875 0
0.34375 0.25 0
0.375 0.25 0
0.375 0.125 0
0.40625 0.125 0
0.375 0.15625 0
0.40625 0.15625 0
0.40625 0.125 0
0.4375 0.125 0
0.40625 0.15625 0
0.4375 0.15625 0
0.375 0.15625 0
0.40625 0.15625 0
0.375 0.1875 0
0.40625 0.1875 0
0.40625 0.15625 0
0.4375 0.15625 0
0.40625 0.1875 0
0.4375 0.1875 0
0.4375 0.125 0
0.46875 0.125 0
0.4375 0.15625 0
0.46875 0.15625 0
0.46875 0.125 0
0.5 0.125 0
0.46875 0.15625 0
0.5 0.15625 0
0.4375 0.15625 0
0.46875 0.15625 0
0.4375 0.1875 0
0.46875 0.1875 0
0.46875 0.15625 0
0.5 0.15625 0
0.46875 0.1875 0
0.5 0.1875 0
0.375 0.1875 0
0.40625 0.1875 0
0.375 0.21875 0
0.40625 0.21875 0
0.40625 0.1875 0
0.4375 0.1875 0
0.40625 0.21875 0
0.4375 0.21875 0
0.375 0.21875 0
0.40625 0.21875 0
0.375 0.25 0
0.40625 0.25 0
0.40625 0.21875 0
0.4375 0.21875 0
0.40625 0.25 0
0.4375 0.25 0
0.4375 0.1875 0
0.46875 0.1875 0
0.4375 0.21875 0
0.46875 0.21875 0
0.46875 0.1875 0
0.5 0.1875 0
0.46875 0.21875 0
0.5 0.21875 0
0.4375 0.21875 0
0.46875 0.21875 0
0.4375 0.25 0
0.46875 0.25 0
0.46875 0.21875 0
0.5 0.21875 0
0.46875 0.25 0
0.5 0.25 0
0 0.25 0
0.03125 0.25 0
0 0.28125 0
0.03125 0.28125 0
0.03125 0.25 0
0.0625 0.25 0
0.03125 0.28125 0
0.0625 0.28125 0
0 0.28125 0
0.03125 0.28125 0
0 0.3125 0
0.03125 0.3125 0
0.03125 0.28125 0
0.0625 0.28125 0
0.03125 0.3125 0
0.0625 0.3125 0
0.0625 0.25 0
0.09375 0.25 0
0.0625 0.28125 0
0.09375 0.28125 0
0.09375 0.25 0
0.125 0.25 0
0.09375 0.28125 0
0.125 0.28125 0
0.0625 0.28125 0
0.09375 0.28125 0
0.0625 0.3125 0
0.09375 0.3125 0
0.09375 0.28125 0
0.125 0.28125 0
0.09375 0.3125 0
0.125 0.3125 0
0 0.3125 0
0.03125 0.3125 0
0 0.34375 0
0.03125 0.34375 0
0.03125 0.3125 0
0.0625 0.3125 0
0.03125 0.34375 0
0.0625 0.34375 0
0 0.34375 0
0.03125 0.34375 0
0 0.375 0
0.03125 0.375 0
0.03125 0.34375 0
0.0625 0.34375 0
0.03125 0.375 0
0.0625 0.375 0
0.0625 0.3125 0
0.09375 0.3125 0
0.0625 0.34375 0
0.09375 0.34375 0
0.09375 0.3125 0
0.125 0.3125 0
0.09375 0.34375 0
0.125 0.34375 0
0.0625 0.34375 0
0.09375 0.34375 0
0.0625 0.375 0
0.09375 0.375 0
0.09375 0.34375 0
0.125 0.34375 0
0.09375 0.375 0
0.125 0.375 0
0.125 0.25 0
0.15625 0.25 0
0.125 0.28125 0
0.15625 0.28125 0
0.15625 0.25 0
0.1875 0.25 0
0.15625 0.28125 0
0.1875 0.28125 0
0.125 0.28125 0
0.15625 0.28125 0
0.125 0.3125 0
0.15625 0.3125 0
0.15625 0.28125 0
0.1875 0.28125 0
0.15625 0.3125 0
0.1875 0.3125 0
0.1875 0.25 0
0.21875 0.25 0
0.1875 0.28125 0
0.21875 0.28125 0
0.21875 0.25 0
0.25 0.25 0
0.21875 0.28125 0
0.25 0.28125 0
0.1875 0.28125 0
0.21875 0.28125 0
0.1875 0.3125 0
0.21875 0.3125 0
0.21875 0.28125 0
0.25 0.28125 0
0.21875 0.3125 0
0.25 0.3125 0
0.125 0.3125 0
0.15625 0.3125 0
0.125 0.34375 0
0.15625 0.34375 0
0.15625 0.3125 0
0.1875 0.3125 0
0.15625 0.34375 0
0.1875 0.34375 0
0.125 0.34375 0
[...]
POINT_DATA 4096
SCALARS p double 1
LOOKUP_TABLE default
4.90564e-06 9.05009e-05 -6.72342e-05 3.04344e-06 9.05009e-05 0.00033975 3.04344e-06 0.000143012 -6.72342e-05 3.04344e-06 -0.000311278 -0.000128678 3.04344e-06 0.000143012 -0.000128678 1.27121e-05 0.00033975 0.000620353 0.000143012 0.000301164 0.000620353 0.000835522 0.000301164 0.000417409 0.000143012 0.000301164 1.27121e-05 0.000161869 0.000301164 0.000417409 0.000161869 0.000256031 -0.000311278 -0.000128678 -0.00059771 -0.000284695 -0.000128678 1.27121e-05 -0.000284695 -0.000126389 -0.00059771 -0.000284695 -0.000830738 -0.000401925 -0.000284695 -0.000126389 -0.000401925 -0.000209132 1.27121e-05 0.000161869 -0.000126389 2.74921e-05 0.000161869 0.000256031 2.74921e-05 0.000108593 -0.000126389 2.74921e-05 -0.000209132 -3.01441e-05 2.74921e-05 0.000108593 -3.01441e-05 5.6918e-05 0.000835522 0.000937372 0.000417409 0.000461108 0.000937372 0.000906645 0.000461108 0.000414971 0.000417409 0.000461108 0.000256031 0.000277643 0.000461108 0.000414971 0.000277643 0.000210933 0.000906645 0.000738629 0.000414971 0.000272154 0.000738629 0.000436336 0.000272154 3.19039e-05 0.000414971 0.000272154 0.000210933 4.89049e-05 0.000272154 3.19039e-05 4.89049e-05 -0.000210418 0.000256031 0.000277643 0.000108593 0.000116928 0.000277643 0.000210933 0.000116928 4.22986e-05 0.000108593 0.000116928 5.6918e-05 6.48565e-05 0.000116928 4.22986e-05 6.48565e-05 -1.1675e-05 0.000210933 4.89049e-05 4.22986e-05 -0.000119479 4.89049e-05 -0.000210418 -0.000119479 -0.000369987 4.22986e-05 -0.000119479 -1.1675e-05 -0.000173748 -0.000119479 -0.000369987 -0.000173748 -0.000421679 -0.000830738 -0.000401925 -0.000958333 -0.000444284 -0.000401925 -0.000209132 -0.000444284 -0.000210375 -0.000958333 -0.000444284 -0.000953061 -0.000387369 -0.000444284 -0.000210375 -0.000387369 -0.000105691 -0.000209132 -3.01441e-05 -0.000210375 -2.14217e-06 -3.01441e-05 5.6918e-05 -2.14217e-06 9.88502e-05 -0.000210375 -2.14217e-06 -0.000105691 0.000131378 -2.14217e-06 9.88502e-05 0.000131378 0.000250428 -0.000953061 -0.000387369 -0.000798685 -0.000214784 -0.000387369 -0.000105691 -0.000214784 0.000122999 -0.000798685 -0.000214784 -0.000484131 8.58938e-05 -0.000214784 0.000122999 8.58938e-05 0.000490737 -0.000105691 0.000131378 0.000122999 0.000386268 0.000131378 0.000250428 0.000386268 0.000524972 0.000122999 0.000386268 0.000490737 0.000777141 0.000386268 0.000524972 0.000777141 0.000936163 5.6918e-05 6.48565e-05 9.88502e-05 0.000113211 6.48565e-05 -1.1675e-05 0.000113211 3.96075e-05 9.88502e-05 0.000113211 0.000250428 0.000274925 0.000113211 3.96075e-05 0.000274925 0.000206765 -1.1675e-05 -0.000173748 3.96075e-05 -0.000120218 -0.000173748 -0.000421679 -0.000120218 -0.000365184 3.96075e-05 -0.000120218 0.000206765 4.98688e-05 -0.000120218 -0.000365184 4.98688e-05 -0.000193447 0.000250428 0.000274925 0.000524972 0.000561027 0.000274925 0.000206765 0.000561027 0.000499235 0.000524972 0.000561027 0.000936163 0.000983996 0.000561027 0.000499235 0.000983996 0.000928422 0.000206765 4.98688e-05 0.000499235 0.000344962 4.98688e-05 -0.000193447 0.000344962 0.000101571 0.000499235 0.000344962 0.000928422 0.000775746 0.000344962 0.000101571 0.000775746 0.000530117 0.000436336 6.61595e-06 3.19039e-05 -0.000302883 6.61595e-06 -0.000541859 -0.000302883 -0.00072733 3.19039e-05 -0.000302883 -0.000210418 -0.000565442 -0.000302883 -0.00072733 -0.000565442 -0.00101238 -0.000541859 -0.00119953 -0.00072733 -0.00123505 -0.00119953 -0.00195607 -0.00123505 -0.00181859 -0.00072733 -0.00123505 -0.00101238 -0.00154548 -0.00123505 -0.00181859 -0.00154548 -0.00215757 -0.000210418 -0.000565442 -0.000369987 -0.000708213 -0.000565442 -0.00101238 -0.000708213 -0.0011314 -0.000369987 -0.000708213 -0.000421679 -0.000754237 -0.000708213 -0.0011314 -0.000754237 -0.00116907 -0.00101238 -0.00154548 -0.0011314 -0.00163497 -0.00154548 -0.00215757 -0.00163497 -0.00221289 -0.0011314 -0.00163497 -0.00116907 -0.0016623 -0.00163497 -0.00221289 -0.0016623 -0.00222873 -0.00195607 -0.0028001 -0.00181859 -0.00246936 -0.0028001 -0.00371882 -0.00246936 -0.00317737 -0.00181859 -0.00246936 -0.00215757 -0.00284007 -0.00246936 -0.00317737 -0.00284007 -0.00358273 -0.00371882 -0.00469775 -0.00317737 -0.00393121 -0.00469775 -0.00572032 -0.00393121 -0.00471779 -0.00317737 -0.00393121 -0.00358273 -0.00437356 -0.00393121 -0.00471779 -0.00437356 -0.00519876 -0.00215757 -0.00284007 -0.00221289 -0.00285771 -0.00284007 -0.00358273 -0.00285771 -0.00356018 -0.00221289 -0.00285771 -0.00222873 -0.0028617 -0.00285771 -0.00356018 -0.0028617 -0.00355268 -0.00358273 -0.00437356 -0.00356018 -0.0043092 -0.00437356 -0.00519876 -0.0043092 -0.00509186 -0.00356018 -0.0043092 -0.00355268 -0.00429124 -0.0043092 -0.00509186 -0.00429124 -0.0050649 -0.000421679 -0.000754237 -0.000365184 -0.0006936 -0.000754237 -0.00116907 -0.0006936 -0.00110323 -0.000365184 -0.0006936 -0.000193447 -0.000521045 -0.0006936 -0.00110323 -0.000521045 -0.0009307 -0.00116907 -0.0016623 -0.00110323 -0.00159077 -0.0016623 -0.00222873 -0.00159077 -0.00215179 -0.00110323 -0.00159077 -0.0009307 -0.0014196 -0.00159077 -0.00215179 -0.0014196 -0.00198398 -0.000193447 -0.000521045 0.000101571 -0.000228444 -0.000521045 -0.0009307 -0.000228444 -0.000642981 0.000101571 -0.000228444 0.000530117 0.00019426 -0.000228444 -0.000642981 0.00019426 -0.00022994 -0.0009307 -0.0014196 -0.000642981 -0.00113968 -0.0014196 -0.00198398 -0.00113968 -0.00171539 -0.000642981 -0.00113968 -0.00022994 -0.000740633 -0.00113968 -0.00171539 -0.000740633 -0.00133535 -0.00222873 -0.0028617 -0.00215179 -0.00278031 -0.0028617 -0.00355268 -0.00278031 -0.00346856 -0.00215179 -0.00278031 -0.00198398 -0.0026185 -0.00278031 -0.00346856 -0.0026185 -0.00331609 -0.00355268 -0.00429124 -0.00346856 -0.00420673 -0.00429124 -0.0050649 -0.00420673 -0.00498273 -0.00346856 -0.00420673 -0.00331609 -0.00406747 -0.00420673 -0.00498273 -0.00406747 -0.00486086 -0.00198398 -0.0026185 -0.00171539 -0.00236551 -0.0026185 -0.00331609 -0.00236551 -0.00308363 -0.00171539 -0.00236551 -0.00133535 -0.0020103 -0.00236551 -0.00308363 -0.0020103 -0.00275979 -0.00331609 -0.00406747 -0.00308363 -0.00386097 -0.00406747 -0.00486086 -0.00386097 -0.00468603 -0.00308363 -0.00386097 -0.00275979 -0.00357565 -0.00386097 -0.00468603 -0.00357565 -0.00444668 -0.000484131 8.58938e-05 2.91859e-08 0.000525416 8.58938e-05 0.000490737 0.000525416 0.00101106 2.91859e-08 0.000525416 0.000663617 0.00111422 0.000525416 0.00101106 0.00111422 0.00169715 0.000490737 0.000777141 0.00101106 0.00131792 0.000777141 0.000936163 0.00131792 0.00149778 0.00101106 0.00131792 0.00169715 0.0020226 0.00131792 0.00149778 0.0020226 0.00222413 0.000663617 0.00111422 0.00151806 0.00186383 0.00111422 0.00169715 0.00186383 0.0025633 0.00151806 0.00186383 0.0025772 0.00278744 0.00186383 0.0025633 0.00278744 0.00362544 0.00169715 0.0020226 0.0025633 0.00290626 0.0020226 0.00222413 0.00290626 0.0031309 0.0025633 0.00290626 0.00362544 0.00398558 0.00290626 0.0031309 0.00398558 0.00423538 0.000936163 0.000983996 0.00149778 0.0015571 0.000983996 0.000928422 0.0015571 0.00150704 0.00149778 0.0015571 0.00222413 0.00229467 0.0015571 0.00150704 0.00229467 0.00224937 0.000928422 0.000775746 0.00150704 0.00135457 0.000775746 0.000530117 0.00135457 0.00110445 0.00150704 0.00135457 0.00224937 0.00209576 0.00135457 0.00110445 0.00209576 0.00183916 0.00222413 0.00229467 0.0031309 0.00321262 0.00229467 0.00224937 0.00321262 0.00317156 0.0031309 0.00321262 0.00423538 0.00432869 0.00321262 0.00317156 0.00432869 0.0042918 0.00224937 0.00209576 0.00317156 0.00301579 0.00209576 0.00183916 0.00301579 0.0027513 0.00317156 0.00301579 0.0042918 0.0041335 0.00301579 0.0027513 0.0041335 0.0038606 0.0025772 0.00278744 0.00385793 0.00390057 0.00278744 0.00362544 0.00390057 0.00490199 0.00385793 0.00390057 0.00538058 0.00522167 0.00390057 0.00490199 0.00522167 0.00641458 0.00362544 0.00398558 0.00490199 0.00527967 0.00398558 0.00423538 0.00527967 0.00555735 0.00490199 0.00527967 0.00641458 0.00681063 0.00527967 0.00555735 0.00681063 0.00711943 0.00538058 0.00522167 0.00716951 0.00677281 0.00522167 0.00641458 0.00677281 0.00818893 0.00716951 0.00677281 0.00925404 0.00858055 0.00677281 0.00818893 0.00858055 0.0102558 0.00641458 0.00681063 0.00818893 0.00860447 0.00681063 0.00711943 0.00860447 0.00894782 0.00818893 0.00860447 0.0102558 0.010692 0.00860447 0.00894782 0.010692 0.011073 0.00423538 0.00432869 0.00555735 0.00566311 0.00432869 0.0042918 0.00566311 0.00563087 0.00555735 0.00566311 0.00711943 0.00723878 0.00566311 0.00563087 0.00723878 0.00721203 0.0042918 0.0041335 0.00563087 0.0054704 0.0041335 0.0038606 0.0054704 0.00518962 0.00563087 0.0054704 0.00721203 0.00705038 0.0054704 0.00518962 0.00705038 0.00676334 0.00711943 0.00723878 0.00894782 0.00908187 0.00723878 0.00721203 0.00908187 0.00906145 0.00894782 0.00908187 0.011073 0.0112221 0.00908187 0.00906145 0.0112221 0.0112082 0.00721203 0.00705038 0.00906145 0.00889995 0.00705038 0.00676334 0.00889995 0.0086091 0.00906145 0.00889995 0.0112082 0.0110479 0.00889995 0.0086091 0.0110479 0.0107558 0.000530117 0.00019426 0.00110445 0.000759486 0.00019426 -0.00022994 0.000759486 0.000321261 0.00110445 0.000759486 0.00183916 0.00148237 0.000759486 0.000321261 0.00148237 0.00102655 -0.00022994 -0.000740633 0.000321261 -0.000208996 -0.000740633 -0.00133535 -0.000208996 -0.000829665 0.000321261 -0.000208996 0.00102655 0.000472133 -0.000208996 -0.000829665 0.000472133 -0.000180305 0.00183916 0.00148237 0.0027513 0.00238084 0.00148237 0.00102655 0.00238084 0.00190502 0.0027513 0.00238084 0.0038606 0.00347583 0.00238084 0.00190502 0.00347583 0.00297919 0.00102655 0.000472133 0.00190502 0.00132329 0.000472133 -0.000180305 0.00132329 0.00063495 0.00190502 0.00132329 0.00297919 0.00236896 0.00132329 0.00063495 0.00236896 0.00164289 -0.00133535 -0.0020103 -0.000829665 -0.0015379 -0.0020103 -0.00275979 -0.0015379 -0.00232891 -0.000829665 -0.0015379 -0.000180305 -0.000929078 -0.0015379 -0.00232891 -0.000929078 -0.00177059 -0.00275979 -0.00357565 -0.00232891 -0.00319527 -0.00357565 -0.00444668 -0.00319527 -0.00412625 -0.00232891 -0.00319527 -0.00177059 -0.00269849 -0.00319527 -0.00412625 -0.00269849 -0.00370281 -0.000180305 -0.000929078 0.00063495 -0.000159823 -0.000929078 -0.00177059 -0.000159823 -0.00105902 0.00063495 -0.000159823 0.00164289 0.000799211 -0.000159823 -0.00105902 0.000799211 -0.000162158 -0.00177059 -0.00269849 -0.00105902 -0.0020578 -0.00269849 -0.00370281 -0.0020578 -0.00314745 -0.00105902 -0.0020578 -0.000162158 -0.00123851 -0.0020578 -0.00314745 -0.00123851 -0.00242315 0.0038606 0.00347583 0.00518962 0.00479137 0.00347583 0.00297919 0.00479137 0.00427502 0.00518962 0.00479137 0.00676334 0.00635405 0.00479137 0.00427502 0.00635405 0.00582129 0.00297919 0.00236896 0.00427502 0.00363753 0.00236896 0.00164289 0.00363753 0.00287479 0.00427502 0.00363753 0.00582129 0.00516064 0.00363753 0.00287479 0.00516064 0.00436585 0.00676334 0.00635405 0.0086091 0.00819266 0.00635405 0.00582129 0.00819266 0.00764897 0.0086091 0.00819266 0.0107558 0.010337 0.00819266 0.00764897 0.010337 0.00978966 0.00582129 0.00516064 0.00764897 0.00697226 0.00516064 0.00436585 0.00697226 0.00615402 0.00764897 0.00697226 0.00978966 0.00910678 0.00697226 0.00615402 0.00910678 0.00827773 0.00164289 0.000799211 0.00287479 0.00198268 0.000799211 -0.000162158 0.00198268 0.000958418 0.00287479 0.00198268 0.00436585 0.00343007 0.00198268 0.000958418 0.00343007 0.00234713 -0.000162158 -0.00123851 0.000958418 -0.000198289 -0.00123851 -0.00242315 -0.000198289 -0.00148368 0.000958418 -0.000198289 0.00234713 0.0011129 -0.000198289 -0.00148368 0.0011129 -0.000273049 0.00436585 0.00343007 0.00615402 0.00518435 0.00343007 0.00234713 0.00518435 0.00405315 0.00615402 0.00518435 0.00827773 0.00728941 0.00518435 0.00405315 0.00728941 0.00612753 0.00234713 0.0011129 0.00405315 0.00275158 0.0011129 -0.000273049 0.00275158 0.00127365 0.00405315 0.00275158 0.00612753 0.00477782 0.00275158 0.00127365 0.00477782 0.00322747 -0.00572032 -0.00676763 -0.00471779 -0.00552232 -0.00676763 -0.00781851 -0.00552232 -0.00632834 -0.00471779 -0.00552232 -0.00519876 -0.00604268 -0.00552232 -0.00632834 -0.00604268 -0.00688794 -0.00781851 -0.00884965 -0.00632834 -0.00711788 -0.00884965 -0.00983599 -0.00711788 -0.0078719 -0.00632834 -0.00711788 -0.00688794 -0.00771568 -0.00711788 -0.0078719 -0.00771568 -0.00850604 -0.00519876 -0.00604268 -0.00509186 -0.00589331 -0.00604268 -0.00688794 -0.00589331 -0.00669698 -0.00509186 -0.00589331 -0.0050649 -0.00585913 -0.00589331 -0.00669698 -0.00585913 -0.00665757 -0.00688794 -0.00771568 -0.00669698 -0.00748494 -0.00771568 -0.00850604 -0.00748494 -0.0082382 -0.00669698 -0.00748494 -0.00665757 -0.00744229 -0.00748494 -0.0082382 -0.00744229 -0.0081941 -0.00983599 -0.0107514 -0.0078719 -0.00857096 -0.0107514 -0.0115699 -0.00857096 -0.00919574 -0.0078719 -0.00857096 -0.00850604 -0.00923886 -0.00857096 -0.00919574 -0.00923886 -0.00989434 -0.0115699 -0.0122662 -0.00919574 -0.00972842 -0.0122662 -0.0128183 -0.00972842 -0.0101538 -0.00919574 -0.00972842 -0.00989434 -0.0104546 -0.00972842 -0.0101538 -0.0104546 -0.0109047 -0.00850604 -0.00923886 -0.0082382 -0.00893748 -0.00923886 -0.00989434 -0.00893748 -0.00956395 -0.0082382 -0.00893748 -0.0081941 -0.00889347 -0.00893748 -0.00956395 -0.00889347 -0.00952125 -0.00989434 -0.0104546 -0.00956395 -0.0101007 -0.0104546 -0.0109047 -0.0101007 -0.0105338 -0.00956395 -0.0101007 -0.00952125 -0.0100601 -0.0101007 -0.0105338 -0.0100601 -0.0104956 -0.0050649 -0.00585913 -0.00498273 -0.00578229 -0.00585913 -0.00665757 -0.00578229 -0.00658895 -0.00498273 -0.00578229 -0.00486086 -0.00568204 -0.00578229 -0.00658895 -0.00568204 -0.00651421 -0.00665757 -0.00744229 -0.00658895 -0.00738445 -0.00744229 -0.0081941 -0.00738445 -0.00814897 -0.00658895 -0.00738445 -0.00651421 -0.00733835 -0.00738445 -0.00814897 -0.00733835 -0.00813349 -0.00486086 -0.00568204 -0.00468603 -0.0055445 -0.00568204 -0.00651421 -0.0055445 -0.00641903 -0.00468603 -0.0055445 -0.00444668 -0.00535842 -0.0055445 -0.00641903 -0.00535842 -0.00629281 -0.00651421 -0.00733835 -0.00641903 -0.00728947 -0.00733835 -0.00813349 -0.00728947 -0.00813319 -0.00641903 -0.00728947 -0.00629281 -0.00722826 -0.00728947 -0.00813319 -0.00722826 -0.00813999 -0.0081941 -0.00889347 -0.00814897 -0.00886208 -0.00889347 -0.00952125 -0.00886208 -0.00950362 -0.00814897 -0.00886208 -0.00813349 -0.0088776 -0.00886208 -0.00950362 -0.0088776 -0.00954875 -0.00952125 -0.0100601 -0.00950362 -0.010055 -0.0100601 -0.0104956 -0.010055 -0.0105006 -0.00950362 -0.010055 -0.00954875 -0.0101263 -0.010055 -0.0105006 -0.0101263 -0.0105926 -0.00813349 -0.0088776 -0.00813319 -0.00892594 -0.0088776 -0.00954875 -0.00892594 -0.00964317 -0.00813319 -0.00892594 -0.00813999 -0.00900085 -0.00892594 -0.00964317 -0.00900085 -0.00978277 -0.00954875 -0.0101263 -0.00964317 -0.0102614 -0.0101263 -0.0105926 -0.0102614 -0.01076 -0.00964317 -0.0102614 -0.00978277 -0.0104584 -0.0102614 -0.01076 -0.0104584 -0.0110035 -0.0128183 -0.0132085 -0.0101538 -0.0104605 -0.0132085 -0.013426 -0.0104605 -0.0106435 -0.0101538 -0.0104605 -0.0109047 -0.0112342 -0.0104605 -0.0106435 -0.0112342 -0.011439 -0.013426 -0.0134711 -0.0106435 -0.0107033 -0.0134711 -0.0133511 -0.0107033 -0.0106627 -0.0106435 -0.0107033 -0.011439 -0.0115212 -0.0107033 -0.0106627 -0.0115212 -0.0115018 -0.0109047 -0.0112342 -0.0105338 -0.0108537 -0.0112342 -0.011439 -0.0108537 -0.0110566 -0.0105338 -0.0108537 -0.0104956 -0.0108177 -0.0108537 -0.0110566 -0.0108177 -0.0110221 -0.011439 -0.0115212 -0.0110566 -0.0111441 -0.0115212 -0.0115018 -0.0111441 -0.011135 -0.0110566 -0.0111441 -0.0110221 -0.0111089 -0.0111441 -0.011135 -0.0111089 -0.0110946 -0.0133511 -0.0131277 -0.0106627 -0.0104925 -0.0131277 -0.0128188 -0.0104925 -0.0105253 -0.0106627 -0.0104925 -0.0115018 -0.0113578 -0.0104925 -0.0105253 -0.0113578 -0.0113853 -0.0128188 -0.0119565 -0.0105253 -0.00936061 -0.0119565 -0.013015 -0.00936061 -0.0117953 -0.0105253 -0.00936061 -0.0113853 -0.0102303 -0.00936061 -0.0117953 -0.0102303 -0.0121306 -0.0115018 -0.0113578 -0.011135 -0.0109989 -0.0113578 -0.0113853 -0.0109989 -0.0110275 -0.011135 -0.0109989 -0.0110946 -0.0109461 -0.0109989 -0.0110275 -0.0109461 -0.0109404 -0.0113853 -0.0102303 -0.0110275 -0.00984159 -0.0102303 -0.0121306 -0.00984159 -0.0118117 -0.0110275 -0.00984159 -0.0109404 -0.00972377 -0.00984159 -0.0118117 -0.00972377 -0.0115109 -0.0104956 -0.0108177 -0.0105006 -0.0108292 -0.0108177 -0.0110221 -0.0108292 -0.011035 -0.0105006 -0.0108292 -0.0105926 -0.0109344 -0.0108292 -0.011035 -0.0109344 -0.0111445 -0.0110221 -0.0111089 -0.011035 -0.0111171 -0.0111089 -0.0110946 -0.0111171 -0.0110897 -0.011035 -0.0111171 -0.0111445 -0.0112206 -0.0111171 -0.0110897 -0.0112206 -0.0111759 -0.0105926 -0.0109344 -0.01076 -0.0111233 -0.0109344 -0.0111445 -0.0111233 -0.0113421 -0.01076 -0.0111233 -0.0110035 -0.0113987 -0.0111233 -0.0113421 -0.0113987 -0.0116326 -0.0111445 -0.0112206 -0.0113421 -0.0114129 -0.0112206 -0.0111759 -0.0114129 -0.0113488 -0.0113421 -0.0114129 -0.0116326 -0.0117004 -0.0114129 -0.0113488 -0.0117004 -0.0116159 -0.0110946 -0.0109461 -0.0110897 -0.010918 -0.0109461 -0.0109404 -0.010918 -0.010873 -0.0110897 -0.010918 -0.0111759 -0.0109751 -0.010918 -0.010873 -0.0109751 -0.0108877 -0.0109404 -0.00972377 -0.010873 -0.00961402 -0.00972377 -0.0115109 -0.00961402 -0.0113161 -0.010873 -0.00961402 -0.0108877 -0.00958289 -0.00961402 -0.0113161 -0.00958289 -0.0112124 -0.0111759 -0.0109751 -0.0113488 -0.0111151 -0.0109751 -0.0108877 -0.0111151 -0.0109845 -0.0113488 -0.0111151 -0.0116159 -0.0113461 -0.0111151 -0.0109845 -0.0113461 -0.0111699 -0.0108877 -0.00958289 -0.0109845 -0.00962611 -0.00958289 -0.0112124 -0.00962611 -0.0112071 -0.0109845 -0.00962611 -0.0111699 -0.00974747 -0.00962611 -0.0112071 -0.00974747 -0.0112953 -0.00444668 -0.00535842 -0.00412625 -0.00510734 -0.00535842 -0.00629281 -0.00510734 -0.0061197 -0.00412625 -0.00510734 -0.00370281 -0.00476917 -0.00510734 -0.0061197 -0.00476917 -0.00587814 -0.00629281 -0.00722826 -0.0061197 -0.00714008 -0.00722826 -0.00813999 -0.00714008 -0.00814108 -0.0061197 -0.00714008 -0.00587814 -0.00700475 -0.00714008 -0.00814108 -0.00700475 -0.00811867 -0.00370281 -0.00476917 -0.00314745 -0.00431427 -0.00476917 -0.00587814 -0.00431427 -0.00553863 -0.00314745 -0.00431427 -0.00242315 -0.00370385 -0.00431427 -0.00553863 -0.00370385 -0.00506152 -0.00587814 -0.00700475 -0.00553863 -0.00679402 -0.00700475 -0.00811867 -0.00679402 -0.00804699 -0.00553863 -0.00679402 -0.00506152 -0.00646877 -0.00679402 -0.00804699 -0.00646877 -0.00788925 -0.00813999 -0.00900085 -0.00814108 -0.00909199 -0.00900085 -0.00978277 -0.00909199 -0.00996022 -0.00814108 -0.00909199 -0.00811867 -0.00918479 -0.00909199 -0.00996022 -0.00918479 -0.010165 -0.00978277 -0.0104584 -0.00996022 -0.0107134 -0.0104584 -0.0110035 -0.0107134 -0.0113221 -0.00996022 -0.0107134 -0.010165 -0.0110204 -0.0107134 -0.0113221 -0.0110204 -0.0117149 -0.00811867 -0.00918479 -0.00804699 -0.0092575 -0.00918479 -0.010165 -0.0092575 -0.0103806 -0.00804699 -0.0092575 -0.00788925 -0.00927758 -0.0092575 -0.0103806 -0.00927758 -0.0105808 -0.010165 -0.0110204 -0.0103806 -0.0113691 -0.0110204 -0.0117149 -0.0113691 -0.012178 -0.0103806 -0.0113691 -0.0105808 -0.0117414 -0.0113691 -0.012178 -0.0117414 -0.0127023 -0.00242315 -0.00370385 -0.00148368 -0.00288818 -0.00370385 -0.00506152 -0.00288818 -0.00439457 -0.00148368 -0.00288818 -0.000273049 -0.00180542 -0.00288818 -0.00439457 -0.00180542 -0.00347069 -0.00506152 -0.00646877 -0.00439457 -0.00597578 -0.00646877 -0.00788925 -0.00597578 -0.00759345 -0.00439457 -0.00597578 -0.00347069 -0.00524422 -0.00597578 -0.00759345 -0.00524422 -0.00708755 -0.000273049 -0.00180542 0.00127365 -0.000381539 -0.00180542 -0.00347069 -0.000381539 -0.00220675 0.00127365 -0.000381539 0.00322747 0.00146734 -0.000381539 -0.00220675 0.00146734 -0.000504759 -0.00347069 -0.00524422 -0.00220675 -0.00418285 -0.00524422 -0.00708755 -0.00418285 -0.00627475 -0.00220675 -0.00418285 -0.000504