# vtk DataFile Version 3.0
#This file was generated by the deal.II library on 2026/1/5 at 14:42:01
ASCII
DATASET UNSTRUCTURED_GRID

POINTS 1744 double
0 0 0
0.0625 0 0
0 0.0625 0
0.0625 0.0625 0
0.0625 0 0
0.125 0 0
0.0625 0.0625 0
0.125 0.0625 0
0 0.0625 0
0.0625 0.0625 0
0 0.125 0
0.0625 0.125 0
0.0625 0.0625 0
0.125 0.0625 0
0.0625 0.125 0
0.125 0.125 0
0.125 0 0
0.1875 0 0
0.125 0.0625 0
0.1875 0.0625 0
0.1875 0 0
0.25 0 0
0.1875 0.0625 0
0.25 0.0625 0
0.125 0.0625 0
0.1875 0.0625 0
0.125 0.125 0
0.1875 0.125 0
0.1875 0.0625 0
0.25 0.0625 0
0.1875 0.125 0
0.25 0.125 0
0 0.125 0
0.0625 0.125 0
0 0.1875 0
0.0625 0.1875 0
0.0625 0.125 0
0.125 0.125 0
0.0625 0.1875 0
0.125 0.1875 0
0 0.1875 0
0.0625 0.1875 0
0 0.25 0
0.0625 0.25 0
0.0625 0.1875 0
0.125 0.1875 0
0.0625 0.25 0
0.125 0.25 0
0.125 0.125 0
0.1875 0.125 0
0.125 0.1875 0
0.1875 0.1875 0
0.1875 0.125 0
0.25 0.125 0
0.1875 0.1875 0
0.25 0.1875 0
0.125 0.1875 0
0.1875 0.1875 0
0.125 0.25 0
0.1875 0.25 0
0.1875 0.1875 0
0.25 0.1875 0
0.1875 0.25 0
0.25 0.25 0
0.25 0 0
0.3125 0 0
0.25 0.0625 0
0.3125 0.0625 0
0.3125 0 0
0.375 0 0
0.3125 0.0625 0
0.375 0.0625 0
0.25 0.0625 0
0.3125 0.0625 0
0.25 0.125 0
0.3125 0.125 0
0.3125 0.0625 0
0.375 0.0625 0
0.3125 0.125 0
0.375 0.125 0
0.375 0 0
0.4375 0 0
0.375 0.0625 0
0.4375 0.0625 0
0.4375 0 0
0.5 0 0
0.4375 0.0625 0
0.5 0.0625 0
0.375 0.0625 0
0.4375 0.0625 0
0.375 0.125 0
0.4375 0.125 0
0.4375 0.0625 0
0.5 0.0625 0
0.4375 0.125 0
0.5 0.125 0
0.25 0.125 0
0.3125 0.125 0
0.25 0.1875 0
0.3125 0.1875 0
0.3125 0.125 0
0.375 0.125 0
0.3125 0.1875 0
0.375 0.1875 0
0.25 0.1875 0
0.3125 0.1875 0
0.25 0.25 0
0.3125 0.25 0
0.3125 0.1875 0
0.375 0.1875 0
0.3125 0.25 0
0.375 0.25 0
0.375 0.125 0
0.4375 0.125 0
0.375 0.1875 0
0.4375 0.1875 0
0.4375 0.125 0
0.5 0.125 0
0.4375 0.1875 0
0.5 0.1875 0
0.375 0.1875 0
0.4375 0.1875 0
0.375 0.25 0
0.4375 0.25 0
0.4375 0.1875 0
0.5 0.1875 0
0.4375 0.25 0
0.5 0.25 0
0 0.25 0
0.0625 0.25 0
0 0.3125 0
0.0625 0.3125 0
0.0625 0.25 0
0.125 0.25 0
0.0625 0.3125 0
0.125 0.3125 0
0 0.3125 0
0.0625 0.3125 0
0 0.375 0
0.0625 0.375 0
0.0625 0.3125 0
0.125 0.3125 0
0.0625 0.375 0
0.125 0.375 0
0.125 0.25 0
0.1875 0.25 0
0.125 0.3125 0
0.1875 0.3125 0
0.1875 0.25 0
0.25 0.25 0
0.1875 0.3125 0
0.25 0.3125 0
0.125 0.3125 0
0.1875 0.3125 0
0.125 0.375 0
0.1875 0.375 0
0.1875 0.3125 0
0.25 0.3125 0
0.1875 0.375 0
0.25 0.375 0
0 0.375 0
0.0625 0.375 0
0 0.4375 0
0.0625 0.4375 0
0.0625 0.375 0
0.125 0.375 0
0.0625 0.4375 0
0.125 0.4375 0
0 0.4375 0
0.0625 0.4375 0
0 0.5 0
0.0625 0.5 0
0.0625 0.4375 0
0.125 0.4375 0
0.0625 0.5 0
0.125 0.5 0
0.125 0.375 0
0.1875 0.375 0
0.125 0.4375 0
0.1875 0.4375 0
0.1875 0.375 0
0.25 0.375 0
0.1875 0.4375 0
0.25 0.4375 0
0.125 0.4375 0
0.1875 0.4375 0
0.125 0.5 0
0.1875 0.5 0
0.1875 0.4375 0
0.25 0.4375 0
0.1875 0.5 0
0.25 0.5 0
0.25 0.25 0
0.3125 0.25 0
0.25 0.3125 0
0.3125 0.3125 0
0.3125 0.25 0
0.375 0.25 0
0.3125 0.3125 0
0.375 0.3125 0
0.25 0.3125 0
0.3125 0.3125 0
0.25 0.375 0
0.3125 0.375 0
0.3125 0.3125 0
0.375 0.3125 0
0.3125 0.375 0
0.375 0.375 0
0.375 0.25 0
0.4375 0.25 0
0.375 0.3125 0
0.4375 0.3125 0
0.4375 0.25 0
0.5 0.25 0
0.4375 0.3125 0
0.5 0.3125 0
0.375 0.3125 0
0.4375 0.3125 0
0.375 0.375 0
0.4375 0.375 0
0.4375 0.3125 0
0.5 0.3125 0
0.4375 0.375 0
0.5 0.375 0
0.25 0.375 0
0.3125 0.375 0
0.25 0.4375 0
0.3125 0.4375 0
0.3125 0.375 0
0.375 0.375 0
0.3125 0.4375 0
0.375 0.4375 0
0.25 0.4375 0
0.3125 0.4375 0
0.25 0.5 0
0.3125 0.5 0
0.3125 0.4375 0
0.375 0.4375 0
0.3125 0.5 0
0.375 0.5 0
0.375 0.375 0
0.4375 0.375 0
0.375 0.4375 0
0.4375 0.4375 0
0.4375 0.375 0
0.5 0.375 0
0.4375 0.4375 0
0.5 0.4375 0
0.375 0.4375 0
0.4375 0.4375 0
0.375 0.5 0
0.4375 0.5 0
0.4375 0.4375 0
0.5 0.4375 0
0.4375 0.5 0
0.5 0.5 0
0.5 0 0
0.5625 0 0
0.5 0.0625 0
0.5625 0.0625 0
0.5625 0 0
0.625 0 0
0.5625 0.0625 0
0.625 0.0625 0
0.5 0.0625 0
0.5625 0.0625 0
0.5 0.125 0
0.5625 0.125 0
0.5625 0.0625 0
0.625 0.0625 0
0.5625 0.125 0
0.625 0.125 0
0.625 0 0
0.6875 0 0
0.625 0.0625 0
0.6875 0.0625 0
0.6875 0 0
0.75 0 0
0.6875 0.0625 0
0.75 0.0625 0
0.625 0.0625 0
0.6875 0.0625 0
0.625 0.125 0
0.6875 0.125 0
0.6875 0.0625 0
0.75 0.0625 0
0.6875 0.125 0
0.75 0.125 0
0.5 0.125 0
0.5625 0.125 0
0.5 0.1875 0
0.5625 0.1875 0
0.5625 0.125 0
0.625 0.125 0
0.5625 0.1875 0
0.625 0.1875 0
0.5 0.1875 0
0.5625 0.1875 0
0.5 0.25 0
0.5625 0.25 0
0.5625 0.1875 0
0.625 0.1875 0
0.5625 0.25 0
0.625 0.25 0
0.625 0.125 0
0.6875 0.125 0
0.625 0.1875 0
0.6875 0.1875 0
0.6875 0.125 0
0.75 0.125 0
0.6875 0.1875 0
0.75 0.1875 0
0.625 0.1875 0
0.6875 0.1875 0
0.625 0.25 0
0.6875 0.25 0
0.6875 0.1875 0
0.75 0.1875 0
0.6875 0.25 0
0.75 0.25 0
0.75 0 0
0.8125 0 0
0.75 0.0625 0
0.8125 0.0625 0
0.8125 0 0
0.875 0 0
0.8125 0.0625 0
0.875 0.0625 0
0.75 0.0625 0
0.8125 0.0625 0
0.75 0.125 0
0.8125 0.125 0
0.8125 0.0625 0
0.875 0.0625 0
0.8125 0.125 0
0.875 0.125 0
0.75 0.125 0
0.8125 0.125 0
0.75 0.1875 0
0.8125 0.1875 0
0.8125 0.125 0
0.875 0.125 0
0.8125 0.1875 0
0.875 0.1875 0
0.75 0.1875 0
0.8125 0.1875 0
0.75 0.25 0
0.8125 0.25 0
0.8125 0.1875 0
0.875 0.1875 0
0.8125 0.25 0
0.875 0.25 0
0.5 0.25 0
0.5625 0.25 0
0.5 0.3125 0
0.5625 0.3125 0
0.5625 0.25 0
0.625 0.25 0
0.5625 0.3125 0
0.625 0.3125 0
0.5 0.3125 0
0.5625 0.3125 0
0.5 0.375 0
0.5625 0.375 0
0.5625 0.3125 0
0.625 0.3125 0
0.5625 0.375 0
0.625 0.375 0
0.625 0.25 0
0.6875 0.25 0
0.625 0.3125 0
0.6875 0.3125 0
0.6875 0.25 0
0.75 0.25 0
0.6875 0.3125 0
0.75 0.3125 0
0.625 0.3125 0
0.6875 0.3125 0
0.625 0.375 0
0.6875 0.375 0
0.6875 0.3125 0
0.75 0.3125 0
0.6875 0.375 0
0.75 0.375 0
0.5 0.375 0
0.5625 0.375 0
0.5 0.4375 0
0.5625 0.4375 0
0.5625 0.375 0
0.625 0.375 0
0.5625 0.4375 0
0.625 0.4375 0
0.5 0.4375 0
0.5625 0.4375 0
0.5 0.5 0
0.5625 0.5 0
0.5625 0.4375 0
0.625 0.4375 0
0.5625 0.5 0
0.625 0.5 0
0.625 0.375 0
0.6875 0.375 0
0.625 0.4375 0
0.6875 0.4375 0
0.6875 0.375 0
0.75 0.375 0
0.6875 0.4375 0
0.75 0.4375 0
0.625 0.4375 0
0.6875 0.4375 0
0.625 0.5 0
0.6875 0.5 0
0.6875 0.4375 0
0.75 0.4375 0
0.6875 0.5 0
0.75 0.5 0
0.75 0.25 0
0.8125 0.25 0
0.75 0.3125 0
0.8125 0.3125 0
0.8125 0.25 0
0.875 0.25 0
0.8125 0.3125 0
0.875 0.3125 0
0.75 0.3125 0
0.8125 0.3125 0
0.75 0.375 0
0.8125 0.375 0
0.8125 0.3125 0
0.875 0.3125 0
0.8125 0.375 0
0.875 0.375 0
0.75 0.375 0
0.8125 0.375 0
0.75 0.4375 0
0.8125 0.4375 0
0.8125 0.375 0
0.875 0.375 0
0.8125 0.4375 0
0.875 0.4375 0
0.75 0.4375 0
0.8125 0.4375 0
0.75 0.5 0
0.8125 0.5 0
0.8125 0.4375 0
0.875 0.4375 0
0.8125 0.5 0
0.875 0.5 0
0 0.5 0
0.0625 0.5 0
0 0.5625 0
0.0625 0.5625 0
0.0625 0.5 0
0.125 0.5 0
0.0625 0.5625 0
0.125 0.5625 0
0 0.5625 0
0.0625 0.5625 0
0 0.625 0
0.0625 0.625 0
0.0625 0.5625 0
0.125 0.5625 0
0.0625 0.625 0
0.125 0.625 0
0.125 0.5 0
0.1875 0.5 0
0.125 0.5625 0
0.1875 0.5625 0
0.1875 0.5 0
0.25 0.5 0
0.1875 0.5625 0
0.25 0.5625 0
0.125 0.5625 0
0.1875 0.5625 0
0.125 0.625 0
0.1875 0.625 0
0.1875 0.5625 0
0.25 0.5625 0
0.1875 0.625 0
0.25 0.625 0
0 0.625 0
0.0625 0.625 0
0 0.6875 0
0.0625 0.6875 0
0.0625 0.625 0
0.125 0.625 0
0.0625 0.6875 0
0.125 0.6875 0
0 0.6875 0
0.0625 0.6875 0
0 0.75 0
0.0625 0.75 0
0.0625 0.6875 0
0.125 0.6875 0
0.0625 0.75 0
0.125 0.75 0
0.125 0.625 0
0.1875 0.625 0
0.125 0.6875 0
0.1875 0.6875 0
0.1875 0.625 0
0.25 0.625 0
0.1875 0.6875 0
0.25 0.6875 0
0.125 0.6875 0
0.1875 0.6875 0
0.125 0.75 0
0.1875 0.75 0
0.1875 0.6875 0
0.25 0.6875 0
0.1875 0.75 0
0.25 0.75 0
0.25 0.5 0
0.3125 0.5 0
0.25 0.5625 0
0.3125 0.5625 0
0.3125 0.5 0
0.375 0.5 0
0.3125 0.5625 0
0.375 0.5625 0
0.25 0.5625 0
0.3125 0.5625 0
0.25 0.625 0
0.3125 0.625 0
0.3125 0.5625 0
0.375 0.5625 0
0.3125 0.625 0
0.375 0.625 0
0.375 0.5 0
0.4375 0.5 0
0.375 0.5625 0
0.4375 0.5625 0
0.4375 0.5 0
0.5 0.5 0
0.4375 0.5625 0
0.5 0.5625 0
0.375 0.5625 0
0.4375 0.5625 0
0.375 0.625 0
0.4375 0.625 0
0.4375 0.5625 0
0.5 0.5625 0
0.4375 0.625 0
0.5 0.625 0
0.25 0.625 0
0.3125 0.625 0
0.25 0.6875 0
0.3125 0.6875 0
0.3125 0.625 0
0.375 0.625 0
0.3125 0.6875 0
0.375 0.6875 0
0.25 0.6875 0
0.3125 0.6875 0
0.25 0.75 0
0.3125 0.75 0
0.3125 0.6875 0
0.375 0.6875 0
0.3125 0.75 0
0.375 0.75 0
0.375 0.625 0
0.4375 0.625 0
0.375 0.6875 0
0.4375 0.6875 0
0.4375 0.625 0
0.5 0.625 0
0.4375 0.6875 0
0.5 0.6875 0
0.375 0.6875 0
0.4375 0.6875 0
0.375 0.75 0
0.4375 0.75 0
0.4375 0.6875 0
0.5 0.6875 0
0.4375 0.75 0
0.5 0.75 0
0 0.75 0
0.0625 0.75 0
0 0.8125 0
0.0625 0.8125 0
0.0625 0.75 0
0.125 0.75 0
0.0625 0.8125 0
0.125 0.8125 0
0 0.8125 0
0.0625 0.8125 0
0 0.875 0
0.0625 0.875 0
0.0625 0.8125 0
0.125 0.8125 0
0.0625 0.875 0
0.125 0.875 0
0.125 0.75 0
0.1875 0.75 0
0.125 0.8125 0
0.1875 0.8125 0
0.1875 0.75 0
0.25 0.75 0
0.1875 0.8125 0
0.25 0.8125 0
0.125 0.8125 0
0.1875 0.8125 0
0.125 0.875 0
0.1875 0.875 0
0.1875 0.8125 0
0.25 0.8125 0
0.1875 0.875 0
0.25 0.875 0
0.25 0.75 0
0.3125 0.75 0
0.25 0.8125 0
0.3125 0.8125 0
0.3125 0.75 0
0.375 0.75 0
0.3125 0.8125 0
0.375 0.8125 0
0.25 0.8125 0
0.3125 0.8125 0
0.25 0.875 0
0.3125 0.875 0
0.3125 0.8125 0
0.375 0.8125 0
0.3125 0.875 0
0.375 0.875 0
0.375 0.75 0
0.4375 0.75 0
0.375 0.8125 0
0.4375 0.8125 0
0.4375 0.75 0
0.5 0.75 0
0.4375 0.8125 0
0.5 0.8125 0
0.375 0.8125 0
0.4375 0.8125 0
0.375 0.875 0
0.4375 0.875 0
0.4375 0.8125 0
0.5 0.8125 0
0.4375 0.875 0
0.5 0.875 0
0.5 0.5 0
0.5625 0.5 0
0.5 0.5625 0
0.5625 0.5625 0
0.5625 0.5 0
0.625 0.5 0
0.5625 0.5625 0
0.625 0.5625 0
0.5 0.5625 0
0.5625 0.5625 0
0.5 0.625 0
0.5625 0.625 0
0.5625 0.5625 0
0.625 0.5625 0
0.5625 0.625 0
0.625 0.625 0
0.625 0.5 0
0.6875 0.5 0
0.625 0.5625 0
0.6875 0.5625 0
0.6875 0.5 0
0.75 0.5 0
0.6875 0.5625 0
0.75 0.5625 0
0.625 0.5625 0
0.6875 0.5625 0
0.625 0.625 0
0.6875 0.625 0
0.6875 0.5625 0
0.75 0.5625 0
0.6875 0.625 0
0.75 0.625 0
0.5 0.625 0
0.5625 0.625 0
0.5 0.6875 0
0.5625 0.6875 0
0.5625 0.625 0
0.625 0.625 0
0.5625 0.6875 0
0.625 0.6875 0
0.5 0.6875 0
0.5625 0.6875 0
0.5 0.75 0
0.5625 0.75 0
0.5625 0.6875 0
0.625 0.6875 0
0.5625 0.75 0
0.625 0.75 0
0.625 0.625 0
0.6875 0.625 0
0.625 0.6875 0
0.6875 0.6875 0
0.6875 0.625 0
0.75 0.625 0
0.6875 0.6875 0
0.75 0.6875 0
0.625 0.6875 0
[...]
POINT_DATA 1744
SCALARS p double 1
LOOKUP_TABLE default
50.0724 74.3457 74.274 75.9074 74.3457 80.7717 75.9074 81.7804 74.274 75.9074 80.4852 81.563 75.9074 81.7804 81.563 83.9666 80.7717 85.1778 81.7804 85.6418 85.1778 88.4237 85.6418 88.7016 81.7804 85.6418 83.9666 86.862 85.6418 88.7016 86.862 89.4364 80.4852 81.563 84.5334 85.0625 81.563 83.9666 85.0625 86.5016 84.5334 85.0625 87.2779 87.6155 85.0625 86.5016 87.6155 88.5722 83.9666 86.862 86.5016 88.4139 86.862 89.4364 88.4139 90.4565 86.5016 88.4139 88.5722 89.9541 88.4139 90.4565 89.9541 91.562 88.4237 91.0647 88.7016 91.2486 91.0647 93.3268 91.2486 93.4618 88.7016 91.2486 89.4364 91.7329 91.2486 93.4618 91.7329 93.8041 93.3268 95.33 93.4618 95.4389 95.33 97.1413 95.4389 97.2369 93.4618 95.4389 93.8041 95.6977 95.4389 97.2369 95.6977 97.4462 89.4364 91.7329 90.4565 92.4389 91.7329 93.8041 92.4389 94.3222 90.4565 92.4389 91.562 93.2525 92.4389 94.3222 93.2525 94.9455 93.8041 95.6977 94.3222 96.1018 95.6977 97.4462 96.1018 97.7825 94.3222 96.1018 94.9455 96.6049 96.1018 97.7825 96.6049 98.2129 87.2779 87.6155 89.2729 89.5101 87.6155 88.5722 89.5101 90.2211 89.2729 89.5101 90.742 90.923 89.5101 90.2211 90.923 91.5003 88.5722 89.9541 90.2211 91.293 89.9541 91.562 91.293 92.6119 90.2211 91.293 91.5003 92.3922 91.293 92.6119 92.3922 93.529 90.742 90.923 91.801 91.9481 90.923 91.5003 91.9481 92.4545 91.801 91.9481 92.5098 92.6358 91.9481 92.4545 92.6358 93.1118 91.5003 92.3922 92.4545 93.2469 92.3922 93.529 93.2469 94.2794 92.4545 93.2469 93.1118 93.8596 93.2469 94.2794 93.8596 94.8465 91.562 93.2525 92.6119 94.075 93.2525 94.9455 94.075 95.6076 92.6119 94.075 93.529 94.8373 94.075 95.6076 94.8373 96.2541 94.9455 96.6049 95.6076 97.1614 96.6049 98.2129 97.1614 98.7055 95.6076 97.1614 96.2541 97.7304 97.1614 98.7055 97.7304 99.2301 93.529 94.8373 94.2794 95.4965 94.8373 96.2541 95.4965 96.8452 94.2794 95.4965 94.8465 96.027 95.4965 96.8452 96.027 97.3538 96.2541 97.7304 96.8452 98.2791 97.7304 99.2301 98.2791 99.7604 96.8452 98.2791 97.3538 98.7831 98.2791 99.7604 98.7831 100.276 97.1413 98.7991 97.2369 98.8892 98.7991 100.325 98.8892 100.414 97.2369 98.8892 97.4462 99.0702 98.8892 100.414 99.0702 100.581 100.325 101.73 100.414 101.822 101.73 103.019 101.822 103.114 100.414 101.822 100.581 101.984 101.822 103.114 101.984 103.279 97.4462 99.0702 97.7825 99.3687 99.0702 100.581 99.3687 100.862 97.7825 99.3687 98.2129 99.7593 99.3687 100.862 99.7593 101.237 100.581 101.984 100.862 102.262 101.984 103.279 102.262 103.564 100.862 102.262 101.237 102.637 102.262 103.564 102.637 103.953 103.019 104.183 103.114 104.287 104.183 105.172 104.287 105.261 103.114 104.287 103.279 104.458 104.287 105.261 104.458 105.447 103.279 104.458 103.564 104.759 104.458 105.447 104.759 105.766 103.564 104.759 103.953 105.172 104.759 105.766 105.172 106.207 98.2129 99.7593 98.7055 100.219 99.7593 101.237 100.219 101.687 98.7055 100.219 99.2301 100.726 100.219 101.687 100.726 102.197 101.237 102.637 101.687 103.097 102.637 103.953 103.097 104.436 101.687 103.097 102.197 103.626 103.097 104.436 103.626 105 99.2301 100.726 99.7604 101.258 100.726 102.197 101.258 102.749 99.7604 101.258 100.276 101.8 101.258 102.749 101.8 103.329 102.197 103.626 102.749 104.212 103.626 105 104.212 105.633 102.749 104.212 103.329 104.842 104.212 105.633 104.842 106.323 103.953 105.172 104.436 105.689 105.172 106.207 105.689 106.762 104.436 105.689 105 106.299 105.689 106.762 106.299 107.423 105 106.299 105.633 106.992 106.299 107.423 106.992 108.177 105.633 106.992 106.323 107.753 106.992 108.177 107.753 109.011 92.5098 92.6358 92.896 93.0091 92.6358 93.1118 93.0091 93.4846 92.896 93.0091 92.9642 93.0706 93.0091 93.4846 93.0706 93.572 93.1118 93.8596 93.4846 94.2302 93.8596 94.8465 94.2302 95.2201 93.4846 94.2302 93.572 94.3534 94.2302 95.2201 94.3534 95.3907 92.9642 93.0706 92.6999 92.8052 93.0706 93.572 92.8052 93.3605 92.6999 92.8052 92.0688 92.1807 92.8052 93.3605 92.1807 92.824 93.572 94.3534 93.3605 94.2168 94.3534 95.3907 94.2168 95.3475 93.3605 94.2168 92.824 93.8026 94.2168 95.3475 93.8026 95.0788 94.8465 96.027 95.2201 96.4123 96.027 97.3538 96.4123 97.7619 95.2201 96.4123 95.3907 96.6409 96.4123 97.7619 96.6409 98.0577 97.3538 98.7831 97.7619 99.2253 98.7831 100.276 99.2253 100.763 97.7619 99.2253 98.0577 99.5953 99.2253 100.763 99.5953 101.212 95.3907 96.6409 95.3475 96.7036 96.6409 98.0577 96.7036 98.2337 95.3475 96.7036 95.0788 96.5933 96.7036 98.2337 96.5933 98.2867 98.0577 99.5953 98.2337 99.8883 99.5953 101.212 99.8883 101.621 98.2337 99.8883 98.2867 100.104 99.8883 101.621 100.104 101.995 92.0688 92.1807 91.0317 91.15 92.1807 92.824 91.15 91.9383 91.0317 91.15 89.7086 89.9367 91.15 91.9383 89.9367 90.874 92.824 93.8026 91.9383 93.0969 93.8026 95.0788 93.0969 94.5799 91.9383 93.0969 90.874 92.2493 93.0969 94.5799 92.2493 93.9681 95.0788 96.5933 94.5799 96.3103 96.5933 98.2867 96.3103 98.2196 94.5799 96.3103 93.9681 95.9364 96.3103 98.2196 95.9364 98.0786 98.2867 100.104 98.2196 100.248 100.104 101.995 100.248 102.341 98.2196 100.248 98.0786 100.332 100.248 102.341 100.332 102.638 100.276 101.8 100.763 102.339 101.8 103.329 102.339 103.927 100.763 102.339 101.212 102.87 102.339 103.927 102.87 104.539 103.329 104.842 103.927 105.505 104.842 106.323 105.505 107.057 103.927 105.505 104.539 106.195 105.505 107.057 106.195 107.827 101.212 102.87 101.621 103.392 102.87 104.539 103.392 105.165 101.621 103.392 101.995 103.915 103.392 105.165 103.915 105.82 104.539 106.195 105.165 106.914 106.195 107.827 106.914 108.626 105.165 106.914 105.82 107.678 106.914 108.626 107.678 109.464 106.323 107.753 107.057 108.569 107.753 109.011 108.569 109.908 107.057 108.569 107.827 109.423 108.569 109.908 109.423 110.845 107.827 109.423 108.626 110.299 109.423 110.845 110.299 111.789 108.626 110.299 109.464 111.182 110.299 111.789 111.182 112.694 101.995 103.915 102.341 104.448 103.915 105.82 104.448 106.521 102.341 104.448 102.638 104.945 104.448 106.521 104.945 107.195 105.82 107.678 106.521 108.511 107.678 109.464 108.511 110.373 106.521 108.511 107.195 109.325 108.511 110.373 109.325 111.258 109.464 111.182 110.373 112.062 111.182 112.694 112.062 113.48 110.373 112.062 111.258 112.886 112.062 113.48 112.886 113.694 105.172 105.586 105.628 105.588 105.586 105.654 105.588 105.691 105.628 105.588 105.261 105.67 105.588 105.691 105.67 105.733 105.654 105.708 105.691 105.744 105.708 105.717 105.744 105.741 105.691 105.744 105.733 105.788 105.744 105.741 105.788 105.787 105.261 105.67 105.756 105.716 105.67 105.733 105.716 105.818 105.756 105.716 105.447 105.865 105.716 105.818 105.865 105.927 105.733 105.788 105.818 105.868 105.788 105.787 105.868 105.867 105.818 105.868 105.927 105.981 105.868 105.867 105.981 105.979 105.447 105.865 106.018 105.974 105.865 105.927 105.974 106.075 106.018 105.974 105.766 106.187 105.974 106.075 106.187 106.246 105.927 105.981 106.075 106.125 105.981 105.979 106.125 106.122 106.075 106.125 106.246 106.299 106.125 106.122 106.299 106.295 105.766 106.187 106.407 106.358 106.187 106.246 106.358 106.455 106.407 106.358 106.207 106.632 106.358 106.455 106.632 106.687 106.246 106.299 106.455 106.503 106.299 106.295 106.503 106.499 106.455 106.503 106.687 106.738 106.503 106.499 106.738 106.731 106.207 106.632 106.917 106.861 106.632 106.687 106.861 106.954 106.917 106.861 106.762 107.193 106.861 106.954 107.193 107.241 106.687 106.738 106.954 106.999 106.738 106.731 106.999 106.992 106.954 106.999 107.241 107.289 106.999 106.992 107.289 107.28 106.762 107.193 107.541 107.476 107.193 107.241 107.476 107.562 107.541 107.476 107.423 107.86 107.476 107.562 107.86 107.9 107.241 107.289 107.562 107.604 107.289 107.28 107.604 107.593 107.562 107.604 107.9 107.944 107.604 107.593 107.944 107.931 107.423 107.86 108.268 108.191 107.86 107.9 108.191 108.269 108.268 108.191 108.177 108.622 108.191 108.269 108.622 108.651 107.9 107.944 108.269 108.306 107.944 107.931 108.306 108.291 108.269 108.306 108.651 108.689 108.306 108.291 108.689 108.67 108.177 108.622 109.086 108.993 108.622 108.651 108.993 109.059 109.086 108.993 109.011 109.461 108.993 109.059 109.461 109.475 108.651 108.689 109.059 109.089 108.689 108.67 109.089 109.068 109.059 109.089 109.475 109.505 109.089 109.068 109.505 109.479 89.7086 89.3216 89.8763 89.8319 89.3216 89.9367 89.8319 90.059 89.8763 89.8319 90.442 90.3777 89.8319 90.059 90.3777 90.531 89.9367 90.0018 90.059 90.4122 90.0018 90.874 90.4122 90.9016 90.059 90.4122 90.531 90.8063 90.4122 90.9016 90.8063 91.2371 90.442 90.3777 91.1153 90.7704 90.3777 90.531 90.7704 90.8122 91.1153 90.7704 91.5992 91.0923 90.7704 90.8122 91.0923 91.0181 90.531 90.8063 90.8122 91.0289 90.8063 91.2371 91.0289 91.4213 90.8122 91.0289 91.0181 91.1967 91.0289 91.4213 91.1967 91.5615 90.874 91.2166 90.9016 91.5251 91.2166 92.2493 91.5251 92.2452 90.9016 91.5251 91.2371 91.8027 91.5251 92.2452 91.8027 92.4865 92.2493 92.8459 92.2452 93.0701 92.8459 93.9681 93.0701 93.9623 92.2452 93.0701 92.4865 93.2672 93.0701 93.9623 93.2672 94.133 91.2371 91.8027 91.4213 91.9586 91.8027 92.4865 91.9586 92.6172 91.4213 91.9586 91.5615 92.0771 91.9586 92.6172 92.0771 92.7176 92.4865 93.2672 92.6172 93.3782 93.2672 94.133 93.3782 94.2253 92.6172 93.3782 92.7176 93.4628 93.3782 94.2253 93.4628 94.296 93.9681 94.7758 93.9623 94.9301 94.7758 95.9364 94.9301 95.9459 93.9623 94.9301 94.133 95.0674 94.9301 95.9459 95.0674 96.0611 95.9364 96.917 95.9459 97.0112 96.917 98.0786 97.0112 98.1119 95.9459 97.0112 96.0611 97.1017 97.0112 98.1119 97.1017 98.1808 94.133 95.0674 94.2253 95.1446 95.0674 96.0611 95.1446 96.1238 94.2253 95.1446 94.296 95.2028 95.1446 96.1238 95.2028 96.1705 96.0611 97.1017 96.1238 97.152 97.1017 98.1808 97.152 98.2192 96.1238 97.152 96.1705 97.1881 97.152 98.2192 97.1881 98.2453 98.0786 99.1979 98.1119 99.2383 99.1979 100.332 99.2383 100.391 98.1119 99.2383 98.1808 99.2891 99.2383 100.391 99.2891 100.418 100.332 101.557 100.391 101.547 101.557 102.638 101.547 102.72 100.391 101.547 100.418 101.56 101.547 102.72 101.56 102.706 98.1808 99.2891 98.2192 99.3163 99.2891 100.418 99.3163 100.435 98.2192 99.3163 98.2453 99.3328 99.3163 100.435 99.3328 100.442 100.418 101.56 100.435 101.566 101.56 102.706 101.566 102.701 100.435 101.566 100.442 101.564 101.566 102.701 101.564 102.69 109.011 109.461 109.978 109.864 109.461 109.475 109.864 109.912 109.978 109.864 109.908 110.358 109.864 109.912 110.358 110.349 109.475 109.505 109.912 109.931 109.505 109.479 109.931 109.902 109.912 109.931 110.349 110.366 109.931 109.902 110.366 110.331 109.908 110.358 110.918 110.777 110.358 110.349 110.777 110.798 110.918 110.777 110.845 111.279 110.777 110.798 111.279 111.236 110.349 110.366 110.798 110.802 110.366 110.331 110.802 110.761 110.798 110.802 111.236 111.234 110.802 110.761 111.234 111.185 110.845 111.279 111.873 111.696 111.279 111.236 111.696 111.673 111.873 111.696 111.789 112.177 111.696 111.673 112.177 112.083 111.236 111.234 111.673 111.652 111.234 111.185 111.652 111.596 111.673 111.652 112.083 112.049 111.652 111.596 112.049 111.981 111.789 112.177 112.788 112.562 112.177 112.083 112.562 112.469 112.788 112.562 112.694 112.974 112.562 112.469 112.974 112.801 112.083 112.049 112.469 112.409 112.049 111.981 112.409 112.33 112.469 112.409 112.801 112.719 112.409 112.33 112.719 112.625 102.638 103.936 102.72 103.876 103.936 104.945 103.876 105.039 102.72 103.876 102.706 103.85 103.876 105.039 103.85 104.98 104.945 106.276 105.039 106.163 106.276 107.195 106.163 107.281 105.039 106.163 104.98 106.092 106.163 107.281 106.092 107.169 102.706 103.85 102.701 103.833 103.85 104.98 103.833 104.951 102.701 103.833 102.69 103.812 103.833 104.951 103.812 104.921 104.98 106.092 104.951 106.047 106.092 107.169 106.047 107.11 104.951 106.047 104.921 106.006 106.047 107.11 106.006 107.058 107.195 108.511 107.281 108.34 108.511 109.325 108.34 109.368 107.281 108.34 107.169 108.207 108.34 109.368 108.207 109.188 109.325 110.556 109.368 110.317 110.556 111.258 110.317 111.195 109.368 110.317 109.188 110.1 110.317 111.195 110.1 110.921 107.169 108.207 107.11 108.128 108.207 109.188 108.128 109.088 107.11 108.128 107.058 108.064 108.128 109.088 108.064 109.009 109.188 110.1 109.088 109.973 110.1 110.921 109.973 110.765 109.088 109.973 109.009 109.879 109.973 110.765 109.879 110.653 112.694 112.974 113.568 113.275 112.974 112.801 113.275 113.072 113.568 113.275 113.48 113.52 113.275 113.072 113.52 113.244 112.801 112.719 113.072 112.959 112.719 112.625 112.959 112.85 113.072 112.959 113.244 113.11 112.959 112.85 113.11 112.988 113.48 113.52 113.961 113.602 113.52 113.244 113.602 113.292 113.961 113.602 113.694 113.425 113.602 113.292 113.425 113.203 113.244 113.11 113.292 113.159 113.11 112.988 113.159 113.028 113.292 113.159 113.203 113.105 113.159 113.028 113.105 112.972 111.258 112.289 111.195 111.97 112.289 112.886 111.97 112.586 111.195 111.97 110.921 111.63 111.97 112.586 111.63 112.198 112.886 113.438 112.586 113.041 113.438 113.694 113.041 113.162 112.586 113.041 112.198 112.59 113.041 113.162 112.59 112.798 110.921 111.63 110.765 111.443 111.63 112.198 111.443 111.984 110.765 111.443 110.653 111.313 111.443 111.984 111.313 111.839 112.198 112.59 111.984 112.374 112.59 112.798 112.374 112.608 111.984 112.374 111.839 112.218 112.374 112.608 112.218 112.447 113.694 113.425 113.162 113.121 113.425 113.203 113.121 113.019 113.162 113.121 112.798 112.85 113.121 113.019 112.85 112.808 113.203 113.105 113.019 112.967 113.105 112.972 112.967 112.828 113.019 112.967 112.808 112.76 112.967 112.828 112.76 112.603 112.798 112.85 112.608 112.702 112.85 112.808 112.702 112.673 112.608 112.702 112.447 112.534 112.702 112.673 112.534 112.487 112.808 112.76 112.673 112.577 112.76 112.603 112.577 112.161 112.673 112.577 112.487 112.292 112.577 112.161 112.292 111.768 
