# vtk DataFile Version 3.0
#This file was generated by the deal.II library on 2026/1/5 at 14:19:30
ASCII
DATASET UNSTRUCTURED_GRID

POINTS 4096 double
0 0 0
0.03125 0 0
0 0.03125 0
0.03125 0.03125 0
0.03125 0 0
0.0625 0 0
0.03125 0.03125 0
0.0625 0.03125 0
0 0.03125 0
0.03125 0.03125 0
0 0.0625 0
0.03125 0.0625 0
0.03125 0.03125 0
0.0625 0.03125 0
0.03125 0.0625 0
0.0625 0.0625 0
0.0625 0 0
0.09375 0 0
0.0625 0.03125 0
0.09375 0.03125 0
0.09375 0 0
0.125 0 0
0.09375 0.03125 0
0.125 0.03125 0
0.0625 0.03125 0
0.09375 0.03125 0
0.0625 0.0625 0
0.09375 0.0625 0
0.09375 0.03125 0
0.125 0.03125 0
0.09375 0.0625 0
0.125 0.0625 0
0 0.0625 0
0.03125 0.0625 0
0 0.09375 0
0.03125 0.09375 0
0.03125 0.0625 0
0.0625 0.0625 0
0.03125 0.09375 0
0.0625 0.09375 0
0 0.09375 0
0.03125 0.09375 0
0 0.125 0
0.03125 0.125 0
0.03125 0.09375 0
0.0625 0.09375 0
0.03125 0.125 0
0.0625 0.125 0
0.0625 0.0625 0
0.09375 0.0625 0
0.0625 0.09375 0
0.09375 0.09375 0
0.09375 0.0625 0
0.125 0.0625 0
0.09375 0.09375 0
0.125 0.09375 0
0.0625 0.09375 0
0.09375 0.09375 0
0.0625 0.125 0
0.09375 0.125 0
0.09375 0.09375 0
0.125 0.09375 0
0.09375 0.125 0
0.125 0.125 0
0.125 0 0
0.15625 0 0
0.125 0.03125 0
0.15625 0.03125 0
0.15625 0 0
0.1875 0 0
0.15625 0.03125 0
0.1875 0.03125 0
0.125 0.03125 0
0.15625 0.03125 0
0.125 0.0625 0
0.15625 0.0625 0
0.15625 0.03125 0
0.1875 0.03125 0
0.15625 0.0625 0
0.1875 0.0625 0
0.1875 0 0
0.21875 0 0
0.1875 0.03125 0
0.21875 0.03125 0
0.21875 0 0
0.25 0 0
0.21875 0.03125 0
0.25 0.03125 0
0.1875 0.03125 0
0.21875 0.03125 0
0.1875 0.0625 0
0.21875 0.0625 0
0.21875 0.03125 0
0.25 0.03125 0
0.21875 0.0625 0
0.25 0.0625 0
0.125 0.0625 0
0.15625 0.0625 0
0.125 0.09375 0
0.15625 0.09375 0
0.15625 0.0625 0
0.1875 0.0625 0
0.15625 0.09375 0
0.1875 0.09375 0
0.125 0.09375 0
0.15625 0.09375 0
0.125 0.125 0
0.15625 0.125 0
0.15625 0.09375 0
0.1875 0.09375 0
0.15625 0.125 0
0.1875 0.125 0
0.1875 0.0625 0
0.21875 0.0625 0
0.1875 0.09375 0
0.21875 0.09375 0
0.21875 0.0625 0
0.25 0.0625 0
0.21875 0.09375 0
0.25 0.09375 0
0.1875 0.09375 0
0.21875 0.09375 0
0.1875 0.125 0
0.21875 0.125 0
0.21875 0.09375 0
0.25 0.09375 0
0.21875 0.125 0
0.25 0.125 0
0 0.125 0
0.03125 0.125 0
0 0.15625 0
0.03125 0.15625 0
0.03125 0.125 0
0.0625 0.125 0
0.03125 0.15625 0
0.0625 0.15625 0
0 0.15625 0
0.03125 0.15625 0
0 0.1875 0
0.03125 0.1875 0
0.03125 0.15625 0
0.0625 0.15625 0
0.03125 0.1875 0
0.0625 0.1875 0
0.0625 0.125 0
0.09375 0.125 0
0.0625 0.15625 0
0.09375 0.15625 0
0.09375 0.125 0
0.125 0.125 0
0.09375 0.15625 0
0.125 0.15625 0
0.0625 0.15625 0
0.09375 0.15625 0
0.0625 0.1875 0
0.09375 0.1875 0
0.09375 0.15625 0
0.125 0.15625 0
0.09375 0.1875 0
0.125 0.1875 0
0 0.1875 0
0.03125 0.1875 0
0 0.21875 0
0.03125 0.21875 0
0.03125 0.1875 0
0.0625 0.1875 0
0.03125 0.21875 0
0.0625 0.21875 0
0 0.21875 0
0.03125 0.21875 0
0 0.25 0
0.03125 0.25 0
0.03125 0.21875 0
0.0625 0.21875 0
0.03125 0.25 0
0.0625 0.25 0
0.0625 0.1875 0
0.09375 0.1875 0
0.0625 0.21875 0
0.09375 0.21875 0
0.09375 0.1875 0
0.125 0.1875 0
0.09375 0.21875 0
0.125 0.21875 0
0.0625 0.21875 0
0.09375 0.21875 0
0.0625 0.25 0
0.09375 0.25 0
0.09375 0.21875 0
0.125 0.21875 0
0.09375 0.25 0
0.125 0.25 0
0.125 0.125 0
0.15625 0.125 0
0.125 0.15625 0
0.15625 0.15625 0
0.15625 0.125 0
0.1875 0.125 0
0.15625 0.15625 0
0.1875 0.15625 0
0.125 0.15625 0
0.15625 0.15625 0
0.125 0.1875 0
0.15625 0.1875 0
0.15625 0.15625 0
0.1875 0.15625 0
0.15625 0.1875 0
0.1875 0.1875 0
0.1875 0.125 0
0.21875 0.125 0
0.1875 0.15625 0
0.21875 0.15625 0
0.21875 0.125 0
0.25 0.125 0
0.21875 0.15625 0
0.25 0.15625 0
0.1875 0.15625 0
0.21875 0.15625 0
0.1875 0.1875 0
0.21875 0.1875 0
0.21875 0.15625 0
0.25 0.15625 0
0.21875 0.1875 0
0.25 0.1875 0
0.125 0.1875 0
0.15625 0.1875 0
0.125 0.21875 0
0.15625 0.21875 0
0.15625 0.1875 0
0.1875 0.1875 0
0.15625 0.21875 0
0.1875 0.21875 0
0.125 0.21875 0
0.15625 0.21875 0
0.125 0.25 0
0.15625 0.25 0
0.15625 0.21875 0
0.1875 0.21875 0
0.15625 0.25 0
0.1875 0.25 0
0.1875 0.1875 0
0.21875 0.1875 0
0.1875 0.21875 0
0.21875 0.21875 0
0.21875 0.1875 0
0.25 0.1875 0
0.21875 0.21875 0
0.25 0.21875 0
0.1875 0.21875 0
0.21875 0.21875 0
0.1875 0.25 0
0.21875 0.25 0
0.21875 0.21875 0
0.25 0.21875 0
0.21875 0.25 0
0.25 0.25 0
0.25 0 0
0.28125 0 0
0.25 0.03125 0
0.28125 0.03125 0
0.28125 0 0
0.3125 0 0
0.28125 0.03125 0
0.3125 0.03125 0
0.25 0.03125 0
0.28125 0.03125 0
0.25 0.0625 0
0.28125 0.0625 0
0.28125 0.03125 0
0.3125 0.03125 0
0.28125 0.0625 0
0.3125 0.0625 0
0.3125 0 0
0.34375 0 0
0.3125 0.03125 0
0.34375 0.03125 0
0.34375 0 0
0.375 0 0
0.34375 0.03125 0
0.375 0.03125 0
0.3125 0.03125 0
0.34375 0.03125 0
0.3125 0.0625 0
0.34375 0.0625 0
0.34375 0.03125 0
0.375 0.03125 0
0.34375 0.0625 0
0.375 0.0625 0
0.25 0.0625 0
0.28125 0.0625 0
0.25 0.09375 0
0.28125 0.09375 0
0.28125 0.0625 0
0.3125 0.0625 0
0.28125 0.09375 0
0.3125 0.09375 0
0.25 0.09375 0
0.28125 0.09375 0
0.25 0.125 0
0.28125 0.125 0
0.28125 0.09375 0
0.3125 0.09375 0
0.28125 0.125 0
0.3125 0.125 0
0.3125 0.0625 0
0.34375 0.0625 0
0.3125 0.09375 0
0.34375 0.09375 0
0.34375 0.0625 0
0.375 0.0625 0
0.34375 0.09375 0
0.375 0.09375 0
0.3125 0.09375 0
0.34375 0.09375 0
0.3125 0.125 0
0.34375 0.125 0
0.34375 0.09375 0
0.375 0.09375 0
0.34375 0.125 0
0.375 0.125 0
0.375 0 0
0.40625 0 0
0.375 0.03125 0
0.40625 0.03125 0
0.40625 0 0
0.4375 0 0
0.40625 0.03125 0
0.4375 0.03125 0
0.375 0.03125 0
0.40625 0.03125 0
0.375 0.0625 0
0.40625 0.0625 0
0.40625 0.03125 0
0.4375 0.03125 0
0.40625 0.0625 0
0.4375 0.0625 0
0.4375 0 0
0.46875 0 0
0.4375 0.03125 0
0.46875 0.03125 0
0.46875 0 0
0.5 0 0
0.46875 0.03125 0
0.5 0.03125 0
0.4375 0.03125 0
0.46875 0.03125 0
0.4375 0.0625 0
0.46875 0.0625 0
0.46875 0.03125 0
0.5 0.03125 0
0.46875 0.0625 0
0.5 0.0625 0
0.375 0.0625 0
0.40625 0.0625 0
0.375 0.09375 0
0.40625 0.09375 0
0.40625 0.0625 0
0.4375 0.0625 0
0.40625 0.09375 0
0.4375 0.09375 0
0.375 0.09375 0
0.40625 0.09375 0
0.375 0.125 0
0.40625 0.125 0
0.40625 0.09375 0
0.4375 0.09375 0
0.40625 0.125 0
0.4375 0.125 0
0.4375 0.0625 0
0.46875 0.0625 0
0.4375 0.09375 0
0.46875 0.09375 0
0.46875 0.0625 0
0.5 0.0625 0
0.46875 0.09375 0
0.5 0.09375 0
0.4375 0.09375 0
0.46875 0.09375 0
0.4375 0.125 0
0.46875 0.125 0
0.46875 0.09375 0
0.5 0.09375 0
0.46875 0.125 0
0.5 0.125 0
0.25 0.125 0
0.28125 0.125 0
0.25 0.15625 0
0.28125 0.15625 0
0.28125 0.125 0
0.3125 0.125 0
0.28125 0.15625 0
0.3125 0.15625 0
0.25 0.15625 0
0.28125 0.15625 0
0.25 0.1875 0
0.28125 0.1875 0
0.28125 0.15625 0
0.3125 0.15625 0
0.28125 0.1875 0
0.3125 0.1875 0
0.3125 0.125 0
0.34375 0.125 0
0.3125 0.15625 0
0.34375 0.15625 0
0.34375 0.125 0
0.375 0.125 0
0.34375 0.15625 0
0.375 0.15625 0
0.3125 0.15625 0
0.34375 0.15625 0
0.3125 0.1875 0
0.34375 0.1875 0
0.34375 0.15625 0
0.375 0.15625 0
0.34375 0.1875 0
0.375 0.1875 0
0.25 0.1875 0
0.28125 0.1875 0
0.25 0.21875 0
0.28125 0.21875 0
0.28125 0.1875 0
0.3125 0.1875 0
0.28125 0.21875 0
0.3125 0.21875 0
0.25 0.21875 0
0.28125 0.21875 0
0.25 0.25 0
0.28125 0.25 0
0.28125 0.21875 0
0.3125 0.21875 0
0.28125 0.25 0
0.3125 0.25 0
0.3125 0.1875 0
0.34375 0.1875 0
0.3125 0.21875 0
0.34375 0.21875 0
0.34375 0.1875 0
0.375 0.1875 0
0.34375 0.21875 0
0.375 0.21875 0
0.3125 0.21875 0
0.34375 0.21875 0
0.3125 0.25 0
0.34375 0.25 0
0.34375 0.21875 0
0.375 0.21875 0
0.34375 0.25 0
0.375 0.25 0
0.375 0.125 0
0.40625 0.125 0
0.375 0.15625 0
0.40625 0.15625 0
0.40625 0.125 0
0.4375 0.125 0
0.40625 0.15625 0
0.4375 0.15625 0
0.375 0.15625 0
0.40625 0.15625 0
0.375 0.1875 0
0.40625 0.1875 0
0.40625 0.15625 0
0.4375 0.15625 0
0.40625 0.1875 0
0.4375 0.1875 0
0.4375 0.125 0
0.46875 0.125 0
0.4375 0.15625 0
0.46875 0.15625 0
0.46875 0.125 0
0.5 0.125 0
0.46875 0.15625 0
0.5 0.15625 0
0.4375 0.15625 0
0.46875 0.15625 0
0.4375 0.1875 0
0.46875 0.1875 0
0.46875 0.15625 0
0.5 0.15625 0
0.46875 0.1875 0
0.5 0.1875 0
0.375 0.1875 0
0.40625 0.1875 0
0.375 0.21875 0
0.40625 0.21875 0
0.40625 0.1875 0
0.4375 0.1875 0
0.40625 0.21875 0
0.4375 0.21875 0
0.375 0.21875 0
0.40625 0.21875 0
0.375 0.25 0
0.40625 0.25 0
0.40625 0.21875 0
0.4375 0.21875 0
0.40625 0.25 0
0.4375 0.25 0
0.4375 0.1875 0
0.46875 0.1875 0
0.4375 0.21875 0
0.46875 0.21875 0
0.46875 0.1875 0
0.5 0.1875 0
0.46875 0.21875 0
0.5 0.21875 0
0.4375 0.21875 0
0.46875 0.21875 0
0.4375 0.25 0
0.46875 0.25 0
0.46875 0.21875 0
0.5 0.21875 0
0.46875 0.25 0
0.5 0.25 0
0 0.25 0
0.03125 0.25 0
0 0.28125 0
0.03125 0.28125 0
0.03125 0.25 0
0.0625 0.25 0
0.03125 0.28125 0
0.0625 0.28125 0
0 0.28125 0
0.03125 0.28125 0
0 0.3125 0
0.03125 0.3125 0
0.03125 0.28125 0
0.0625 0.28125 0
0.03125 0.3125 0
0.0625 0.3125 0
0.0625 0.25 0
0.09375 0.25 0
0.0625 0.28125 0
0.09375 0.28125 0
0.09375 0.25 0
0.125 0.25 0
0.09375 0.28125 0
0.125 0.28125 0
0.0625 0.28125 0
0.09375 0.28125 0
0.0625 0.3125 0
0.09375 0.3125 0
0.09375 0.28125 0
0.125 0.28125 0
0.09375 0.3125 0
0.125 0.3125 0
0 0.3125 0
0.03125 0.3125 0
0 0.34375 0
0.03125 0.34375 0
0.03125 0.3125 0
0.0625 0.3125 0
0.03125 0.34375 0
0.0625 0.34375 0
0 0.34375 0
0.03125 0.34375 0
0 0.375 0
0.03125 0.375 0
0.03125 0.34375 0
0.0625 0.34375 0
0.03125 0.375 0
0.0625 0.375 0
0.0625 0.3125 0
0.09375 0.3125 0
0.0625 0.34375 0
0.09375 0.34375 0
0.09375 0.3125 0
0.125 0.3125 0
0.09375 0.34375 0
0.125 0.34375 0
0.0625 0.34375 0
0.09375 0.34375 0
0.0625 0.375 0
0.09375 0.375 0
0.09375 0.34375 0
0.125 0.34375 0
0.09375 0.375 0
0.125 0.375 0
0.125 0.25 0
0.15625 0.25 0
0.125 0.28125 0
0.15625 0.28125 0
0.15625 0.25 0
0.1875 0.25 0
0.15625 0.28125 0
0.1875 0.28125 0
0.125 0.28125 0
0.15625 0.28125 0
0.125 0.3125 0
0.15625 0.3125 0
0.15625 0.28125 0
0.1875 0.28125 0
0.15625 0.3125 0
0.1875 0.3125 0
0.1875 0.25 0
0.21875 0.25 0
0.1875 0.28125 0
0.21875 0.28125 0
0.21875 0.25 0
0.25 0.25 0
0.21875 0.28125 0
0.25 0.28125 0
0.1875 0.28125 0
0.21875 0.28125 0
0.1875 0.3125 0
0.21875 0.3125 0
0.21875 0.28125 0
0.25 0.28125 0
0.21875 0.3125 0
0.25 0.3125 0
0.125 0.3125 0
0.15625 0.3125 0
0.125 0.34375 0
0.15625 0.34375 0
0.15625 0.3125 0
0.1875 0.3125 0
0.15625 0.34375 0
0.1875 0.34375 0
0.125 0.34375 0
[...]
POINT_DATA 4096
SCALARS p double 1
LOOKUP_TABLE default
-2.04808e-07 0.000124581 -0.000125249 -3.65151e-08 0.000124581 0.000333583 -3.65151e-08 9.4617e-05 -0.000125249 -3.65151e-08 -0.000336964 -9.40061e-05 -3.65151e-08 9.4617e-05 -9.40061e-05 2.91973e-06 0.000333583 0.000412462 9.4617e-05 0.000110651 0.000412462 0.000299554 0.000110651 -2.84866e-06 9.4617e-05 0.000110651 2.91973e-06 4.25719e-06 0.000110651 -2.84866e-06 4.25719e-06 -0.000134591 -0.000336964 -9.40061e-05 -0.000423741 -0.000109177 -9.40061e-05 2.91973e-06 -0.000109177 9.28053e-06 -0.000423741 -0.000109177 -0.000322755 7.74269e-06 -0.000109177 9.28053e-06 7.74269e-06 0.000161682 2.91973e-06 4.25719e-06 9.28053e-06 1.38477e-05 4.25719e-06 -0.000134591 1.38477e-05 -0.000126133 9.28053e-06 1.38477e-05 0.000161682 0.000173531 1.38477e-05 -0.000126133 0.000173531 3.45906e-05 0.000299554 -1.0346e-05 -2.84866e-06 -0.000257335 -1.0346e-05 -0.000505058 -0.000257335 -0.000652383 -2.84866e-06 -0.000257335 -0.000134591 -0.000419109 -0.000257335 -0.000652383 -0.000419109 -0.000851444 -0.000505058 -0.00117101 -0.000652383 -0.00118189 -0.00117101 -0.00199569 -0.00118189 -0.00183784 -0.000652383 -0.00118189 -0.000851444 -0.0014274 -0.00118189 -0.00183784 -0.0014274 -0.00213988 -0.000134591 -0.000419109 -0.000126133 -0.000408283 -0.000419109 -0.000851444 -0.000408283 -0.000833353 -0.000126133 -0.000408283 3.45906e-05 -0.00025155 -0.000408283 -0.000833353 -0.00025155 -0.000682947 -0.000851444 -0.0014274 -0.000833353 -0.0013977 -0.0014274 -0.00213988 -0.0013977 -0.00209514 -0.000833353 -0.0013977 -0.000682947 -0.00125544 -0.0013977 -0.00209514 -0.00125544 -0.00196277 -0.000322755 7.74269e-06 -2.29513e-05 0.000273507 7.74269e-06 0.000161682 0.000273507 0.000471935 -2.29513e-05 0.000273507 0.000473564 0.000696048 0.000273507 0.000471935 0.000696048 0.000951516 0.000161682 0.000173531 0.000471935 0.000487437 0.000173531 3.45906e-05 0.000487437 0.000350647 0.000471935 0.000487437 0.000951516 0.000965486 0.000487437 0.000350647 0.000965486 0.000829249 0.000473564 0.000696048 0.00116734 0.00128084 0.000696048 0.000951516 0.00128084 0.00160899 0.00116734 0.00128084 0.00206414 0.00203497 0.00128084 0.00160899 0.00203497 0.00245386 0.000951516 0.000965486 0.00160899 0.00161652 0.000965486 0.000829249 0.00161652 0.00147869 0.00160899 0.00161652 0.00245386 0.00245062 0.00161652 0.00147869 0.00245062 0.00230896 3.45906e-05 -0.00025155 0.000350647 5.96768e-05 -0.00025155 -0.000682947 5.96768e-05 -0.000380763 0.000350647 5.96768e-05 0.000829249 0.000529742 5.96768e-05 -0.000380763 0.000529742 7.46391e-05 -0.000682947 -0.00125544 -0.000380763 -0.00096599 -0.00125544 -0.00196277 -0.00096599 -0.00168936 -0.000380763 -0.00096599 7.46391e-05 -0.000531118 -0.00096599 -0.00168936 -0.000531118 -0.00128035 0.000829249 0.000529742 0.00147869 0.00116638 0.000529742 7.46391e-05 0.00116638 0.000690715 0.00147869 0.00116638 0.00230896 0.00197909 0.00116638 0.000690715 0.00197909 0.00147636 7.46391e-05 -0.000531118 0.000690715 5.66302e-05 -0.000531118 -0.00128035 5.66302e-05 -0.000728082 0.000690715 5.66302e-05 0.00147636 0.000805544 5.66302e-05 -0.000728082 0.000805544 -2.48744e-05 -0.00199569 -0.00296691 -0.00183784 -0.00261114 -0.00296691 -0.00407185 -0.00261114 -0.00349174 -0.00183784 -0.00261114 -0.00213988 -0.0029798 -0.00261114 -0.00349174 -0.0029798 -0.00393656 -0.00407185 -0.00529653 -0.00349174 -0.00446847 -0.00529653 -0.00662565 -0.00446847 -0.00552907 -0.00349174 -0.00446847 -0.00393656 -0.00499814 -0.00446847 -0.00552907 -0.00499814 -0.00615127 -0.00213988 -0.0029798 -0.00209514 -0.00291735 -0.0029798 -0.00393656 -0.00291735 -0.0038543 -0.00209514 -0.00291735 -0.00196277 -0.00279672 -0.00291735 -0.0038543 -0.00279672 -0.00374732 -0.00393656 -0.00499814 -0.0038543 -0.00489442 -0.00499814 -0.00615127 -0.00489442 -0.00602482 -0.0038543 -0.00489442 -0.00374732 -0.004803 -0.00489442 -0.00602482 -0.004803 -0.00595082 -0.00662565 -0.0080426 -0.00552907 -0.0066602 -0.0080426 -0.00952953 -0.0066602 -0.00784752 -0.00552907 -0.0066602 -0.00615127 -0.00738143 -0.0066602 -0.00784752 -0.00738143 -0.008673 -0.00952953 -0.0110674 -0.00784752 -0.00907583 -0.0110674 -0.0126365 -0.00907583 -0.0103291 -0.00784752 -0.00907583 -0.008673 -0.0100094 -0.00907583 -0.0103291 -0.0100094 -0.0113732 -0.00615127 -0.00738143 -0.00602482 -0.00723133 -0.00738143 -0.008673 -0.00723133 -0.00849869 -0.00602482 -0.00723133 -0.00595082 -0.00717648 -0.00723133 -0.00849869 -0.00717648 -0.00846457 -0.008673 -0.0100094 -0.00849869 -0.00981062 -0.0100094 -0.0113732 -0.00981062 -0.01115 -0.00849869 -0.00981062 -0.00846457 -0.00979863 -0.00981062 -0.01115 -0.00979863 -0.0111613 -0.00196277 -0.00279672 -0.00168936 -0.00254249 -0.00279672 -0.00374732 -0.00254249 -0.00351528 -0.00168936 -0.00254249 -0.00128035 -0.00216434 -0.00254249 -0.00351528 -0.00216434 -0.00317265 -0.00374732 -0.004803 -0.00351528 -0.00459606 -0.004803 -0.00595082 -0.00459606 -0.00577167 -0.00351528 -0.00459606 -0.00317265 -0.0042933 -0.00459606 -0.00577167 -0.0042933 -0.00551277 -0.00128035 -0.00216434 -0.000728082 -0.00165424 -0.00216434 -0.00317265 -0.00165424 -0.00271097 -0.000728082 -0.00165424 -2.48744e-05 -0.00100517 -0.00165424 -0.00271097 -0.00100517 -0.00212384 -0.00317265 -0.0042933 -0.00271097 -0.00388577 -0.0042933 -0.00551277 -0.00388577 -0.00516466 -0.00271097 -0.00388577 -0.00212384 -0.00336778 -0.00388577 -0.00516466 -0.00336778 -0.00472234 -0.00595082 -0.00717648 -0.00577167 -0.00702762 -0.00717648 -0.00846457 -0.00702762 -0.00834825 -0.00577167 -0.00702762 -0.00551277 -0.00681623 -0.00702762 -0.00834825 -0.00681623 -0.00818757 -0.00846457 -0.00979863 -0.00834825 -0.00971679 -0.00979863 -0.0111613 -0.00971679 -0.0111156 -0.00834825 -0.00971679 -0.00818757 -0.00960951 -0.00971679 -0.0111156 -0.00960951 -0.0110639 -0.00551277 -0.00681623 -0.00516466 -0.00653224 -0.00681623 -0.00818757 -0.00653224 -0.00797183 -0.00516466 -0.00653224 -0.00472234 -0.00617144 -0.00653224 -0.00797183 -0.00617144 -0.00769769 -0.00818757 -0.00960951 -0.00797183 -0.00946555 -0.00960951 -0.0110639 -0.00946555 -0.0109945 -0.00797183 -0.00946555 -0.00769769 -0.00928243 -0.00946555 -0.0109945 -0.00928243 -0.0109059 0.00206414 0.00203497 0.00317454 0.00296809 0.00203497 0.00245386 0.00296809 0.00349781 0.00317454 0.00296809 0.00451316 0.00409283 0.00296809 0.00349781 0.00409283 0.00475532 0.00245386 0.00245062 0.00349781 0.00347978 0.00245062 0.00230896 0.00347978 0.00333211 0.00349781 0.00347978 0.00475532 0.00471858 0.00347978 0.00333211 0.00471858 0.00456275 0.00451316 0.00409283 0.00609834 0.00542483 0.00409283 0.00475532 0.00542483 0.00624412 0.00609834 0.00542483 0.00795225 0.00698301 0.00542483 0.00624412 0.00698301 0.00798558 0.00475532 0.00471858 0.00624412 0.00618463 0.00471858 0.00456275 0.00618463 0.0060184 0.00624412 0.00618463 0.00798558 0.00789908 0.00618463 0.0060184 0.00789908 0.00772 0.00230896 0.00197909 0.00333211 0.00297963 0.00197909 0.00147636 0.00297963 0.00244287 0.00333211 0.00297963 0.00456275 0.0041823 0.00297963 0.00244287 0.0041823 0.00360404 0.00147636 0.000805544 0.00244287 0.00172638 0.000805544 -2.48744e-05 0.00172638 0.000839443 0.00244287 0.00172638 0.00360404 0.00283226 0.00172638 0.000839443 0.00283226 0.00187723 0.00456275 0.0041823 0.0060184 0.00560417 0.0041823 0.00360404 0.00560417 0.00497626 0.0060184 0.00560417 0.00772 0.00726555 0.00560417 0.00497626 0.00726555 0.00657898 0.00360404 0.00283226 0.00497626 0.00413877 0.00283226 0.00187723 0.00413877 0.00310321 0.00497626 0.00413877 0.00657898 0.00566433 0.00413877 0.00310321 0.00566433 0.00453463 0.00795225 0.00698301 0.0101013 0.00879 0.00698301 0.00798558 0.00879 0.0100052 0.0101013 0.00879 0.0125765 0.0108727 0.00879 0.0100052 0.0108727 0.0123335 0.00798558 0.00789908 0.0100052 0.00988707 0.00789908 0.00772 0.00988707 0.00969234 0.0100052 0.00988707 0.0123335 0.0121785 0.00988707 0.00969234 0.0121785 0.0119647 0.0125765 0.0108727 0.0154148 0.013263 0.0108727 0.0123335 0.013263 0.0150066 0.0154148 0.013263 0.0186598 0.0159994 0.013263 0.0150066 0.0159994 0.0180681 0.0123335 0.0121785 0.0150066 0.0148091 0.0121785 0.0119647 0.0148091 0.014572 0.0150066 0.0148091 0.0180681 0.0178215 0.0148091 0.014572 0.0178215 0.0175554 0.00772 0.00726555 0.00969234 0.00919037 0.00726555 0.00657898 0.00919037 0.00843501 0.00969234 0.00919037 0.0119647 0.0114068 0.00919037 0.00843501 0.0114068 0.0105709 0.00657898 0.00566433 0.00843501 0.00743037 0.00566433 0.00453463 0.00743037 0.00619145 0.00843501 0.00743037 0.0105709 0.00946164 0.00743037 0.00619145 0.00946164 0.00809657 0.0119647 0.0114068 0.014572 0.0139478 0.0114068 0.0105709 0.0139478 0.0130175 0.014572 0.0139478 0.0175554 0.0168523 0.0139478 0.0130175 0.0168523 0.0158108 0.0105709 0.00946164 0.0130175 0.0117867 0.00946164 0.00809657 0.0117867 0.010276 0.0130175 0.0117867 0.0158108 0.0144381 0.0117867 0.010276 0.0144381 0.0127591 -2.48744e-05 -0.00100517 0.000839443 -0.000207548 -0.00100517 -0.00212384 -0.000207548 -0.00140233 0.000839443 -0.000207548 0.00187723 0.000750208 -0.000207548 -0.00140233 0.000750208 -0.000535644 -0.00212384 -0.00336778 -0.00140233 -0.00273101 -0.00336778 -0.00472234 -0.00273101 -0.00417816 -0.00140233 -0.00273101 -0.000535644 -0.00196551 -0.00273101 -0.00417816 -0.00196551 -0.00352301 0.00187723 0.000750208 0.00310321 0.00188186 0.000750208 -0.000535644 0.00188186 0.000488988 0.00310321 0.00188186 0.00453463 0.00320345 0.00188186 0.000488988 0.00320345 0.00168643 -0.000535644 -0.00196551 0.000488988 -0.00105948 -0.00196551 -0.00352301 -0.00105948 -0.00274604 0.000488988 -0.00105948 0.00168643 8.02055e-07 -0.00105948 -0.00274604 8.02055e-07 -0.00183467 -0.00472234 -0.00617144 -0.00417816 -0.00572687 -0.00617144 -0.00769769 -0.00572687 -0.00735889 -0.00417816 -0.00572687 -0.00352301 -0.00519028 -0.00572687 -0.00735889 -0.00519028 -0.0069481 -0.00769769 -0.00928243 -0.00735889 -0.00905468 -0.00928243 -0.0109059 -0.00905468 -0.0107935 -0.00735889 -0.00905468 -0.0069481 -0.00877594 -0.00905468 -0.0107935 -0.00877594 -0.010652 -0.00352301 -0.00519028 -0.00274604 -0.00455178 -0.00519028 -0.0069481 -0.00455178 -0.00645642 -0.00274604 -0.00455178 -0.00183467 -0.00379987 -0.00455178 -0.00645642 -0.00379987 -0.00587341 -0.0069481 -0.00877594 -0.00645642 -0.00843836 -0.00877594 -0.010652 -0.00843836 -0.0104747 -0.00645642 -0.00843836 -0.00587341 -0.00803258 -0.00843836 -0.0104747 -0.00803258 -0.0102533 0.00453463 0.00320345 0.00619145 0.00473347 0.00320345 0.00168643 0.00473347 0.00307372 0.00619145 0.00473347 0.00809657 0.00649294 0.00473347 0.00307372 0.00649294 0.00467011 0.00168643 8.02055e-07 0.00307372 0.00123101 8.02055e-07 -0.00183467 0.00123101 -0.000774453 0.00307372 0.00123101 0.00467011 0.00264879 0.00123101 -0.000774453 0.00264879 0.000450823 0.00809657 0.00649294 0.010276 0.0085055 0.00649294 0.00467011 0.0085055 0.00649706 0.010276 0.0085055 0.0127591 0.0107974 0.0085055 0.00649706 0.0107974 0.00857811 0.00467011 0.00264879 0.00649706 0.00427368 0.00264879 0.000450823 0.00427368 0.00185911 0.00649706 0.00427368 0.00857811 0.00612692 0.00427368 0.00185911 0.00612692 0.00346983 -0.00183467 -0.00379987 -0.000774453 -0.00292127 -0.00379987 -0.00587341 -0.00292127 -0.00518687 -0.000774453 -0.00292127 0.000450823 -0.00190098 -0.00292127 -0.00518687 -0.00190098 -0.00438289 -0.00587341 -0.00803258 -0.00518687 -0.00754749 -0.00803258 -0.0102533 -0.00754749 -0.00997809 -0.00518687 -0.00754749 -0.00438289 -0.0069702 -0.00754749 -0.00997809 -0.0069702 -0.00963701 0.000450823 -0.00190098 0.00185911 -0.000722331 -0.00190098 -0.00438289 -0.000722331 -0.00344582 0.00185911 -0.000722331 0.00346983 0.000632757 -0.000722331 -0.00344582 0.000632757 -0.00235845 -0.00438289 -0.0069702 -0.00344582 -0.00628588 -0.0069702 -0.00963701 -0.00628588 -0.00921606 -0.00344582 -0.00628588 -0.00235845 -0.00547783 -0.00628588 -0.00921606 -0.00547783 -0.00869888 -0.0126365 -0.014216 -0.0103291 -0.0115909 -0.014216 -0.015785 -0.0115909 -0.012844 -0.0103291 -0.0115909 -0.0113732 -0.0127464 -0.0115909 -0.012844 -0.0127464 -0.0141103 -0.015785 -0.0173218 -0.012844 -0.0140714 -0.0173218 -0.018805 -0.0140714 -0.0152557 -0.012844 -0.0140714 -0.0141103 -0.0154461 -0.0140714 -0.0152557 -0.0154461 -0.016735 -0.0113732 -0.0127464 -0.01115 -0.0124991 -0.0127464 -0.0141103 -0.0124991 -0.0138396 -0.01115 -0.0124991 -0.0111613 -0.0125345 -0.0124991 -0.0138396 -0.0125345 -0.0138997 -0.0141103 -0.0154461 -0.0138396 -0.0151529 -0.0154461 -0.016735 -0.0151529 -0.0164205 -0.0138396 -0.0151529 -0.0138997 -0.015238 -0.0151529 -0.0164205 -0.015238 -0.0165303 -0.018805 -0.0202134 -0.0152557 -0.0163799 -0.0202134 -0.0215263 -0.0163799 -0.0174273 -0.0152557 -0.0163799 -0.016735 -0.0179584 -0.0163799 -0.0174273 -0.0179584 -0.0190981 -0.0215263 -0.0227238 -0.0174273 -0.018382 -0.0227238 -0.0237871 -0.018382 -0.0192291 -0.0174273 -0.018382 -0.0190981 -0.0201368 -0.018382 -0.0192291 -0.0201368 -0.0210583 -0.016735 -0.0179584 -0.0164205 -0.0176239 -0.0179584 -0.0190981 -0.0176239 -0.0187453 -0.0164205 -0.0176239 -0.0165303 -0.0177577 -0.0176239 -0.0187453 -0.0177577 -0.018902 -0.0190981 -0.0201368 -0.0187453 -0.0197674 -0.0201368 -0.0210583 -0.0197674 -0.0206743 -0.0187453 -0.0197674 -0.018902 -0.0199455 -0.0197674 -0.0206743 -0.0199455 -0.0208718 -0.0111613 -0.0125345 -0.0111156 -0.0125261 -0.0125345 -0.0138997 -0.0125261 -0.0139293 -0.0111156 -0.0125261 -0.0110639 -0.0125316 -0.0125261 -0.0139293 -0.0125316 -0.013993 -0.0138997 -0.015238 -0.0139293 -0.0153058 -0.015238 -0.0165303 -0.0153058 -0.016636 -0.0139293 -0.0153058 -0.013993 -0.0154277 -0.0153058 -0.016636 -0.0154277 -0.0168155 -0.0110639 -0.0125316 -0.0109945 -0.0125388 -0.0125316 -0.013993 -0.0125388 -0.014078 -0.0109945 -0.0125388 -0.0109059 -0.0125473 -0.0125388 -0.014078 -0.0125473 -0.0141851 -0.013993 -0.0154277 -0.014078 -0.0155907 -0.0154277 -0.0168155 -0.0155907 -0.0170556 -0.014078 -0.0155907 -0.0141851 -0.0157968 -0.0155907 -0.0170556 -0.0157968 -0.0173595 -0.0165303 -0.0177577 -0.016636 -0.0179004 -0.0177577 -0.018902 -0.0179004 -0.0190799 -0.016636 -0.0179004 -0.0168155 -0.0181359 -0.0179004 -0.0190799 -0.0181359 -0.0193687 -0.018902 -0.0199455 -0.0190799 -0.0201563 -0.0199455 -0.0208718 -0.0201563 -0.0211124 -0.0190799 -0.0201563 -0.0193687 -0.0204948 -0.0201563 -0.0211124 -0.0204948 -0.0214959 -0.0168155 -0.0181359 -0.0170556 -0.0184509 -0.0181359 -0.0193687 -0.0184509 -0.0197553 -0.0170556 -0.0184509 -0.0173595 -0.0188502 -0.0184509 -0.0197553 -0.0188502 -0.0202458 -0.0193687 -0.0204948 -0.0197553 -0.020948 -0.0204948 -0.0214959 -0.020948 -0.0220094 -0.0197553 -0.020948 -0.0202458 -0.0215238 -0.020948 -0.0220094 -0.0215238 -0.0226625 -0.0237871 -0.0246988 -0.0192291 -0.0199545 -0.0246988 -0.0254414 -0.0199545 -0.0205463 -0.0192291 -0.0199545 -0.0210583 -0.0218475 -0.0199545 -0.0205463 -0.0218475 -0.022492 -0.0254414 -0.0260013 -0.0205463 -0.0209891 -0.0260013 -0.0263494 -0.0209891 -0.0212983 -0.0205463 -0.0209891 -0.022492 -0.022978 -0.0209891 -0.0212983 -0.022978 -0.0233174 -0.0210583 -0.0218475 -0.0206743 -0.0214514 -0.0218475 -0.022492 -0.0214514 -0.0220868 -0.0206743 -0.0214514 -0.0208718 -0.021666 -0.0214514 -0.0220868 -0.021666 -0.0223158 -0.022492 -0.022978 -0.0220868 -0.0225671 -0.022978 -0.0233174 -0.0225671 -0.0229059 -0.0220868 -0.0225671 -0.0223158 -0.0228075 -0.0225671 -0.0229059 -0.0228075 -0.0231536 -0.0263494 -0.0265355 -0.0212983 -0.0213521 -0.0265355 -0.0264725 -0.0213521 -0.0217883 -0.0212983 -0.0213521 -0.0233174 -0.0234071 -0.0213521 -0.0217883 -0.0234071 -0.0238301 -0.0264725 -0.0249923 -0.0217883 -0.0195365 -0.0249923 -0.02728 -0.0195365 -0.0247343 -0.0217883 -0.0195365 -0.0238301 -0.0216004 -0.0195365 -0.0247343 -0.0216004 -0.0257904 -0.0233174 -0.0234071 -0.0229059 -0.0229933 -0.0234071 -0.0238301 -0.0229933 -0.0234331 -0.0229059 -0.0229933 -0.0231536 -0.0232431 -0.0229933 -0.0234331 -0.0232431 -0.0236725 -0.0238301 -0.0216004 -0.0234331 -0.02115 -0.0216004 -0.0257904 -0.02115 -0.0257056 -0.0234331 -0.02115 -0.0236725 -0.0213604 -0.02115 -0.0257056 -0.0213604 -0.025774 -0.0208718 -0.021666 -0.0211124 -0.0219326 -0.021666 -0.0223158 -0.0219326 -0.0226039 -0.0211124 -0.0219326 -0.0214959 -0.0223551 -0.0219326 -0.0226039 -0.0223551 -0.0230586 -0.0223158 -0.0228075 -0.0226039 -0.0231117 -0.0228075 -0.0231536 -0.0231117 -0.0234677 -0.0226039 -0.0231117 -0.0230586 -0.0235905 -0.0231117 -0.0234677 -0.0235905 -0.0239617 -0.0214959 -0.0223551 -0.0220094 -0.0229213 -0.0223551 -0.0230586 -0.0229213 -0.0236681 -0.0220094 -0.0229213 -0.0226625 -0.0236419 -0.0229213 -0.0236681 -0.0236419 -0.0244447 -0.0230586 -0.0235905 -0.0236681 -0.0242327 -0.0235905 -0.0239617 -0.0242327 -0.0246254 -0.0236681 -0.0242327 -0.0244447 -0.0250518 -0.0242327 -0.0246254 -0.0250518 -0.0254733 -0.0231536 -0.0232431 -0.0234677 -0.0235575 -0.0232431 -0.0236725 -0.0235575 -0.0239848 -0.0234677 -0.0235575 -0.0239617 -0.0240548 -0.0235575 -0.0239848 -0.0240548 -0.0244848 -0.0236725 -0.0213604 -0.0239848 -0.0216224 -0.0213604 -0.025774 -0.0216224 -0.0260972 -0.0239848 -0.0216224 -0.0244848 -0.0220637 -0.0216224 -0.0260972 -0.0220637 -0.0266095 -0.0239617 -0.0240548 -0.0246254 -0.0247249 -0.0240548 -0.0244848 -0.0247249 -0.0251635 -0.0246254 -0.0247249 -0.0254733 -0.0255829 -0.0247249 -0.0251635 -0.0255829 -0.0260349 -0.0244848 -0.0220637 -0.0251635 -0.022667 -0.0220637 -0.0266095 -0.022667 -0.0273243 -0.0251635 -0.022667 -0.0260349 -0.0234444 -0.022667 -0.0273243 -0.0234444 -0.028246 -0.0109059 -0.0125473 -0.0107935 -0.0125535 -0.0125473 -0.0141851 -0.0125535 -0.0143118 -0.0107935 -0.0125535 -0.010652 -0.0125532 -0.0125535 -0.0143118 -0.0125532 -0.0144554 -0.0141851 -0.0157968 -0.0143118 -0.0160447 -0.0157968 -0.0173595 -0.0160447 -0.0177276 -0.0143118 -0.0160447 -0.0144554 -0.0163333 -0.0160447 -0.0177276 -0.0163333 -0.0181604 -0.010652 -0.0125532 -0.0104747 -0.0125411 -0.0125532 -0.0144554 -0.0125411 -0.0146119 -0.0104747 -0.0125411 -0.0102533 -0.0125102 -0.0125411 -0.0146119 -0.0125102 -0.0147762 -0.0144554 -0.0163333 -0.0146119 -0.0166603 -0.0163333 -0.0181604 -0.0166603 -0.0186578 -0.0146119 -0.0166603 -0.0147762 -0.0170224 -0.0166603 -0.0186578 -0.0170224 -0.0192186 -0.0173595 -0.0188502 -0.0177276 -0.0193357 -0.0188502 -0.0202458 -0.0193357 -0.0208439 -0.0177276 -0.0193357 -0.0181604 -0.0199099 -0.0193357 -0.0208439 -0.0199099 -0.0215542 -0.0202458 -0.0215238 -0.0208439 -0.0222274 -0.0215238 -0.0226625 -0.0222274 -0.0234622 -0.0208439 -0.0222274 -0.0215542 -0.0230658 -0.0222274 -0.0234622 -0.0230658 -0.0244179 -0.0181604 -0.0199099 -0.0186578 -0.020575 -0.0199099 -0.0215542 -0.020575 -0.0223815 -0.0186578 -0.020575 -0.0192186 -0.0213325 -0.020575 -0.0223815 -0.0213325 -0.0233305 -0.0215542 -0.0230658 -0.0223815 -0.0240467 -0.0230658 -0.0244179 -0.0240467 -0.02554 -0.0223815 -0.0240467 -0.0233305 -0.0251781 -0.0240467 -0.02554 -0.0251781 -0.0268404 -0.0102533 -0.0125102 -0.00997809 -0.0124521 -0.0125102 -0.0147762 -0.0124521 -0.0149411 -0.00997809 -0.0124521 -0.00963701 -0.0123559 -0.0124521 -0.0149411 -0.0123559 -0.0150974 -0.0147762 -0.0170224 -0.0149411 -0.0174147 -0.0170224 -0.0192186 -0.0174147 -0.0198404 -0.0149411 -0.0174147 -0.0150974 -0.0178298 -0.0174147 -0.0198404 -0.0178298 -0.0205183 -0.00963701 -0.0123559 -0.00921606 -0.0122085 -0.0123559 -0.0150974 -0.0122085 -0.0152332 -0.00921606 -0.0122085 -0.00869888 -0.0119939 -0.0122085 -0.0152332 -0.0119939 -0.015333 -0.0150974 -0.0178298 -0.0152332 -0.0182574 -0.0178298 -0.0205183 -0.0182574 -0.0212447 -0.0152332 -0.0182574 -0.015333 -0.0186834 -0.0182574 -0.0212447 -0.0186834 -0.0220075 -0.0192186 -0.0213325 -0.0198404 -0.022183 -0.0213325 -0.0233305 -0.022183 -0.0244054 -0.0198404 -0.022183 -0.0205183 -0.0231251 -0.022183 -0.0244054 -0.0231251 -0.0256089 -0.0233305 -0.0251781 -0.0244054 -0.0264684 -0.0251781 -0.0268404 -0.0264684 -0.0283318 -0.0244054 -0.0264684 -0.0256089 -0.0279252 -0.0264684 -0.0283318 -0.0279252 -0.0300275 -0.0205183 -0.0231251 -0.0212447 -0.0241545 -0.0231251 -0.0256089 -0.0241545 -0.0269413 -0.0212447 -0.0241545 -0.0220075 -0.025262