# vtk DataFile Version 3.0
#This file was generated by the deal.II library on 2026/1/5 at 14:19:38
ASCII
DATASET UNSTRUCTURED_GRID

POINTS 4096 double
0 0 0
0.03125 0 0
0 0.03125 0
0.03125 0.03125 0
0.03125 0 0
0.0625 0 0
0.03125 0.03125 0
0.0625 0.03125 0
0 0.03125 0
0.03125 0.03125 0
0 0.0625 0
0.03125 0.0625 0
0.03125 0.03125 0
0.0625 0.03125 0
0.03125 0.0625 0
0.0625 0.0625 0
0.0625 0 0
0.09375 0 0
0.0625 0.03125 0
0.09375 0.03125 0
0.09375 0 0
0.125 0 0
0.09375 0.03125 0
0.125 0.03125 0
0.0625 0.03125 0
0.09375 0.03125 0
0.0625 0.0625 0
0.09375 0.0625 0
0.09375 0.03125 0
0.125 0.03125 0
0.09375 0.0625 0
0.125 0.0625 0
0 0.0625 0
0.03125 0.0625 0
0 0.09375 0
0.03125 0.09375 0
0.03125 0.0625 0
0.0625 0.0625 0
0.03125 0.09375 0
0.0625 0.09375 0
0 0.09375 0
0.03125 0.09375 0
0 0.125 0
0.03125 0.125 0
0.03125 0.09375 0
0.0625 0.09375 0
0.03125 0.125 0
0.0625 0.125 0
0.0625 0.0625 0
0.09375 0.0625 0
0.0625 0.09375 0
0.09375 0.09375 0
0.09375 0.0625 0
0.125 0.0625 0
0.09375 0.09375 0
0.125 0.09375 0
0.0625 0.09375 0
0.09375 0.09375 0
0.0625 0.125 0
0.09375 0.125 0
0.09375 0.09375 0
0.125 0.09375 0
0.09375 0.125 0
0.125 0.125 0
0.125 0 0
0.15625 0 0
0.125 0.03125 0
0.15625 0.03125 0
0.15625 0 0
0.1875 0 0
0.15625 0.03125 0
0.1875 0.03125 0
0.125 0.03125 0
0.15625 0.03125 0
0.125 0.0625 0
0.15625 0.0625 0
0.15625 0.03125 0
0.1875 0.03125 0
0.15625 0.0625 0
0.1875 0.0625 0
0.1875 0 0
0.21875 0 0
0.1875 0.03125 0
0.21875 0.03125 0
0.21875 0 0
0.25 0 0
0.21875 0.03125 0
0.25 0.03125 0
0.1875 0.03125 0
0.21875 0.03125 0
0.1875 0.0625 0
0.21875 0.0625 0
0.21875 0.03125 0
0.25 0.03125 0
0.21875 0.0625 0
0.25 0.0625 0
0.125 0.0625 0
0.15625 0.0625 0
0.125 0.09375 0
0.15625 0.09375 0
0.15625 0.0625 0
0.1875 0.0625 0
0.15625 0.09375 0
0.1875 0.09375 0
0.125 0.09375 0
0.15625 0.09375 0
0.125 0.125 0
0.15625 0.125 0
0.15625 0.09375 0
0.1875 0.09375 0
0.15625 0.125 0
0.1875 0.125 0
0.1875 0.0625 0
0.21875 0.0625 0
0.1875 0.09375 0
0.21875 0.09375 0
0.21875 0.0625 0
0.25 0.0625 0
0.21875 0.09375 0
0.25 0.09375 0
0.1875 0.09375 0
0.21875 0.09375 0
0.1875 0.125 0
0.21875 0.125 0
0.21875 0.09375 0
0.25 0.09375 0
0.21875 0.125 0
0.25 0.125 0
0 0.125 0
0.03125 0.125 0
0 0.15625 0
0.03125 0.15625 0
0.03125 0.125 0
0.0625 0.125 0
0.03125 0.15625 0
0.0625 0.15625 0
0 0.15625 0
0.03125 0.15625 0
0 0.1875 0
0.03125 0.1875 0
0.03125 0.15625 0
0.0625 0.15625 0
0.03125 0.1875 0
0.0625 0.1875 0
0.0625 0.125 0
0.09375 0.125 0
0.0625 0.15625 0
0.09375 0.15625 0
0.09375 0.125 0
0.125 0.125 0
0.09375 0.15625 0
0.125 0.15625 0
0.0625 0.15625 0
0.09375 0.15625 0
0.0625 0.1875 0
0.09375 0.1875 0
0.09375 0.15625 0
0.125 0.15625 0
0.09375 0.1875 0
0.125 0.1875 0
0 0.1875 0
0.03125 0.1875 0
0 0.21875 0
0.03125 0.21875 0
0.03125 0.1875 0
0.0625 0.1875 0
0.03125 0.21875 0
0.0625 0.21875 0
0 0.21875 0
0.03125 0.21875 0
0 0.25 0
0.03125 0.25 0
0.03125 0.21875 0
0.0625 0.21875 0
0.03125 0.25 0
0.0625 0.25 0
0.0625 0.1875 0
0.09375 0.1875 0
0.0625 0.21875 0
0.09375 0.21875 0
0.09375 0.1875 0
0.125 0.1875 0
0.09375 0.21875 0
0.125 0.21875 0
0.0625 0.21875 0
0.09375 0.21875 0
0.0625 0.25 0
0.09375 0.25 0
0.09375 0.21875 0
0.125 0.21875 0
0.09375 0.25 0
0.125 0.25 0
0.125 0.125 0
0.15625 0.125 0
0.125 0.15625 0
0.15625 0.15625 0
0.15625 0.125 0
0.1875 0.125 0
0.15625 0.15625 0
0.1875 0.15625 0
0.125 0.15625 0
0.15625 0.15625 0
0.125 0.1875 0
0.15625 0.1875 0
0.15625 0.15625 0
0.1875 0.15625 0
0.15625 0.1875 0
0.1875 0.1875 0
0.1875 0.125 0
0.21875 0.125 0
0.1875 0.15625 0
0.21875 0.15625 0
0.21875 0.125 0
0.25 0.125 0
0.21875 0.15625 0
0.25 0.15625 0
0.1875 0.15625 0
0.21875 0.15625 0
0.1875 0.1875 0
0.21875 0.1875 0
0.21875 0.15625 0
0.25 0.15625 0
0.21875 0.1875 0
0.25 0.1875 0
0.125 0.1875 0
0.15625 0.1875 0
0.125 0.21875 0
0.15625 0.21875 0
0.15625 0.1875 0
0.1875 0.1875 0
0.15625 0.21875 0
0.1875 0.21875 0
0.125 0.21875 0
0.15625 0.21875 0
0.125 0.25 0
0.15625 0.25 0
0.15625 0.21875 0
0.1875 0.21875 0
0.15625 0.25 0
0.1875 0.25 0
0.1875 0.1875 0
0.21875 0.1875 0
0.1875 0.21875 0
0.21875 0.21875 0
0.21875 0.1875 0
0.25 0.1875 0
0.21875 0.21875 0
0.25 0.21875 0
0.1875 0.21875 0
0.21875 0.21875 0
0.1875 0.25 0
0.21875 0.25 0
0.21875 0.21875 0
0.25 0.21875 0
0.21875 0.25 0
0.25 0.25 0
0.25 0 0
0.28125 0 0
0.25 0.03125 0
0.28125 0.03125 0
0.28125 0 0
0.3125 0 0
0.28125 0.03125 0
0.3125 0.03125 0
0.25 0.03125 0
0.28125 0.03125 0
0.25 0.0625 0
0.28125 0.0625 0
0.28125 0.03125 0
0.3125 0.03125 0
0.28125 0.0625 0
0.3125 0.0625 0
0.3125 0 0
0.34375 0 0
0.3125 0.03125 0
0.34375 0.03125 0
0.34375 0 0
0.375 0 0
0.34375 0.03125 0
0.375 0.03125 0
0.3125 0.03125 0
0.34375 0.03125 0
0.3125 0.0625 0
0.34375 0.0625 0
0.34375 0.03125 0
0.375 0.03125 0
0.34375 0.0625 0
0.375 0.0625 0
0.25 0.0625 0
0.28125 0.0625 0
0.25 0.09375 0
0.28125 0.09375 0
0.28125 0.0625 0
0.3125 0.0625 0
0.28125 0.09375 0
0.3125 0.09375 0
0.25 0.09375 0
0.28125 0.09375 0
0.25 0.125 0
0.28125 0.125 0
0.28125 0.09375 0
0.3125 0.09375 0
0.28125 0.125 0
0.3125 0.125 0
0.3125 0.0625 0
0.34375 0.0625 0
0.3125 0.09375 0
0.34375 0.09375 0
0.34375 0.0625 0
0.375 0.0625 0
0.34375 0.09375 0
0.375 0.09375 0
0.3125 0.09375 0
0.34375 0.09375 0
0.3125 0.125 0
0.34375 0.125 0
0.34375 0.09375 0
0.375 0.09375 0
0.34375 0.125 0
0.375 0.125 0
0.375 0 0
0.40625 0 0
0.375 0.03125 0
0.40625 0.03125 0
0.40625 0 0
0.4375 0 0
0.40625 0.03125 0
0.4375 0.03125 0
0.375 0.03125 0
0.40625 0.03125 0
0.375 0.0625 0
0.40625 0.0625 0
0.40625 0.03125 0
0.4375 0.03125 0
0.40625 0.0625 0
0.4375 0.0625 0
0.4375 0 0
0.46875 0 0
0.4375 0.03125 0
0.46875 0.03125 0
0.46875 0 0
0.5 0 0
0.46875 0.03125 0
0.5 0.03125 0
0.4375 0.03125 0
0.46875 0.03125 0
0.4375 0.0625 0
0.46875 0.0625 0
0.46875 0.03125 0
0.5 0.03125 0
0.46875 0.0625 0
0.5 0.0625 0
0.375 0.0625 0
0.40625 0.0625 0
0.375 0.09375 0
0.40625 0.09375 0
0.40625 0.0625 0
0.4375 0.0625 0
0.40625 0.09375 0
0.4375 0.09375 0
0.375 0.09375 0
0.40625 0.09375 0
0.375 0.125 0
0.40625 0.125 0
0.40625 0.09375 0
0.4375 0.09375 0
0.40625 0.125 0
0.4375 0.125 0
0.4375 0.0625 0
0.46875 0.0625 0
0.4375 0.09375 0
0.46875 0.09375 0
0.46875 0.0625 0
0.5 0.0625 0
0.46875 0.09375 0
0.5 0.09375 0
0.4375 0.09375 0
0.46875 0.09375 0
0.4375 0.125 0
0.46875 0.125 0
0.46875 0.09375 0
0.5 0.09375 0
0.46875 0.125 0
0.5 0.125 0
0.25 0.125 0
0.28125 0.125 0
0.25 0.15625 0
0.28125 0.15625 0
0.28125 0.125 0
0.3125 0.125 0
0.28125 0.15625 0
0.3125 0.15625 0
0.25 0.15625 0
0.28125 0.15625 0
0.25 0.1875 0
0.28125 0.1875 0
0.28125 0.15625 0
0.3125 0.15625 0
0.28125 0.1875 0
0.3125 0.1875 0
0.3125 0.125 0
0.34375 0.125 0
0.3125 0.15625 0
0.34375 0.15625 0
0.34375 0.125 0
0.375 0.125 0
0.34375 0.15625 0
0.375 0.15625 0
0.3125 0.15625 0
0.34375 0.15625 0
0.3125 0.1875 0
0.34375 0.1875 0
0.34375 0.15625 0
0.375 0.15625 0
0.34375 0.1875 0
0.375 0.1875 0
0.25 0.1875 0
0.28125 0.1875 0
0.25 0.21875 0
0.28125 0.21875 0
0.28125 0.1875 0
0.3125 0.1875 0
0.28125 0.21875 0
0.3125 0.21875 0
0.25 0.21875 0
0.28125 0.21875 0
0.25 0.25 0
0.28125 0.25 0
0.28125 0.21875 0
0.3125 0.21875 0
0.28125 0.25 0
0.3125 0.25 0
0.3125 0.1875 0
0.34375 0.1875 0
0.3125 0.21875 0
0.34375 0.21875 0
0.34375 0.1875 0
0.375 0.1875 0
0.34375 0.21875 0
0.375 0.21875 0
0.3125 0.21875 0
0.34375 0.21875 0
0.3125 0.25 0
0.34375 0.25 0
0.34375 0.21875 0
0.375 0.21875 0
0.34375 0.25 0
0.375 0.25 0
0.375 0.125 0
0.40625 0.125 0
0.375 0.15625 0
0.40625 0.15625 0
0.40625 0.125 0
0.4375 0.125 0
0.40625 0.15625 0
0.4375 0.15625 0
0.375 0.15625 0
0.40625 0.15625 0
0.375 0.1875 0
0.40625 0.1875 0
0.40625 0.15625 0
0.4375 0.15625 0
0.40625 0.1875 0
0.4375 0.1875 0
0.4375 0.125 0
0.46875 0.125 0
0.4375 0.15625 0
0.46875 0.15625 0
0.46875 0.125 0
0.5 0.125 0
0.46875 0.15625 0
0.5 0.15625 0
0.4375 0.15625 0
0.46875 0.15625 0
0.4375 0.1875 0
0.46875 0.1875 0
0.46875 0.15625 0
0.5 0.15625 0
0.46875 0.1875 0
0.5 0.1875 0
0.375 0.1875 0
0.40625 0.1875 0
0.375 0.21875 0
0.40625 0.21875 0
0.40625 0.1875 0
0.4375 0.1875 0
0.40625 0.21875 0
0.4375 0.21875 0
0.375 0.21875 0
0.40625 0.21875 0
0.375 0.25 0
0.40625 0.25 0
0.40625 0.21875 0
0.4375 0.21875 0
0.40625 0.25 0
0.4375 0.25 0
0.4375 0.1875 0
0.46875 0.1875 0
0.4375 0.21875 0
0.46875 0.21875 0
0.46875 0.1875 0
0.5 0.1875 0
0.46875 0.21875 0
0.5 0.21875 0
0.4375 0.21875 0
0.46875 0.21875 0
0.4375 0.25 0
0.46875 0.25 0
0.46875 0.21875 0
0.5 0.21875 0
0.46875 0.25 0
0.5 0.25 0
0 0.25 0
0.03125 0.25 0
0 0.28125 0
0.03125 0.28125 0
0.03125 0.25 0
0.0625 0.25 0
0.03125 0.28125 0
0.0625 0.28125 0
0 0.28125 0
0.03125 0.28125 0
0 0.3125 0
0.03125 0.3125 0
0.03125 0.28125 0
0.0625 0.28125 0
0.03125 0.3125 0
0.0625 0.3125 0
0.0625 0.25 0
0.09375 0.25 0
0.0625 0.28125 0
0.09375 0.28125 0
0.09375 0.25 0
0.125 0.25 0
0.09375 0.28125 0
0.125 0.28125 0
0.0625 0.28125 0
0.09375 0.28125 0
0.0625 0.3125 0
0.09375 0.3125 0
0.09375 0.28125 0
0.125 0.28125 0
0.09375 0.3125 0
0.125 0.3125 0
0 0.3125 0
0.03125 0.3125 0
0 0.34375 0
0.03125 0.34375 0
0.03125 0.3125 0
0.0625 0.3125 0
0.03125 0.34375 0
0.0625 0.34375 0
0 0.34375 0
0.03125 0.34375 0
0 0.375 0
0.03125 0.375 0
0.03125 0.34375 0
0.0625 0.34375 0
0.03125 0.375 0
0.0625 0.375 0
0.0625 0.3125 0
0.09375 0.3125 0
0.0625 0.34375 0
0.09375 0.34375 0
0.09375 0.3125 0
0.125 0.3125 0
0.09375 0.34375 0
0.125 0.34375 0
0.0625 0.34375 0
0.09375 0.34375 0
0.0625 0.375 0
0.09375 0.375 0
0.09375 0.34375 0
0.125 0.34375 0
0.09375 0.375 0
0.125 0.375 0
0.125 0.25 0
0.15625 0.25 0
0.125 0.28125 0
0.15625 0.28125 0
0.15625 0.25 0
0.1875 0.25 0
0.15625 0.28125 0
0.1875 0.28125 0
0.125 0.28125 0
0.15625 0.28125 0
0.125 0.3125 0
0.15625 0.3125 0
0.15625 0.28125 0
0.1875 0.28125 0
0.15625 0.3125 0
0.1875 0.3125 0
0.1875 0.25 0
0.21875 0.25 0
0.1875 0.28125 0
0.21875 0.28125 0
0.21875 0.25 0
0.25 0.25 0
0.21875 0.28125 0
0.25 0.28125 0
0.1875 0.28125 0
0.21875 0.28125 0
0.1875 0.3125 0
0.21875 0.3125 0
0.21875 0.28125 0
0.25 0.28125 0
0.21875 0.3125 0
0.25 0.3125 0
0.125 0.3125 0
0.15625 0.3125 0
0.125 0.34375 0
0.15625 0.34375 0
0.15625 0.3125 0
0.1875 0.3125 0
0.15625 0.34375 0
0.1875 0.34375 0
0.125 0.34375 0
[...]
POINT_DATA 4096
SCALARS p double 1
LOOKUP_TABLE default
-2.38254e-05 4.30262e-05 -0.000116746 -3.44493e-05 4.30262e-05 0.000284529 -3.44493e-05 9.78591e-05 -0.000116746 -3.44493e-05 -0.000368101 -0.00017271 -3.44493e-05 9.78591e-05 -0.00017271 -3.60328e-05 0.000284529 0.000557251 9.78591e-05 0.000250212 0.000557251 0.000763488 0.000250212 0.000360297 9.78591e-05 0.000250212 -3.60328e-05 0.00010774 0.000250212 0.000360297 0.00010774 0.00019613 -0.000368101 -0.00017271 -0.000655719 -0.000329688 -0.00017271 -3.60328e-05 -0.000329688 -0.000175574 -0.000655719 -0.000329688 -0.000885366 -0.000444665 -0.000329688 -0.000175574 -0.000444665 -0.000255869 -3.60328e-05 0.00010774 -0.000175574 -2.63847e-05 0.00010774 0.00019613 -2.63847e-05 4.96388e-05 -0.000175574 -2.63847e-05 -0.000255869 -8.15588e-05 -2.63847e-05 4.96388e-05 -8.15588e-05 7.58967e-07 0.000763488 0.000855211 0.000360297 0.000396894 0.000855211 0.000813614 0.000396894 0.000343034 0.000360297 0.000396894 0.00019613 0.000210866 0.000396894 0.000343034 0.000210866 0.000136551 0.000813614 0.00063449 0.000343034 0.000192162 0.00063449 0.00032127 0.000192162 -5.62258e-05 0.000343034 0.000192162 0.000136551 -3.35891e-05 0.000192162 -5.62258e-05 -3.35891e-05 -0.000301307 0.00019613 0.000210866 4.96388e-05 5.18375e-05 0.000210866 0.000136551 5.18375e-05 -2.96811e-05 4.96388e-05 5.18375e-05 7.58967e-07 2.89222e-06 5.18375e-05 -2.96811e-05 2.89222e-06 -8.02615e-05 0.000136551 -3.35891e-05 -2.96811e-05 -0.000198978 -3.35891e-05 -0.000301307 -0.000198978 -0.000457415 -2.96811e-05 -0.000198978 -8.02615e-05 -0.000249665 -0.000198978 -0.000457415 -0.000249665 -0.000505461 -0.000885366 -0.000444665 -0.00100665 -0.000482908 -0.000444665 -0.000255869 -0.000482908 -0.00025313 -0.00100665 -0.000482908 -0.0009933 -0.000420596 -0.000482908 -0.00025313 -0.000420596 -0.000143311 -0.000255869 -8.15588e-05 -0.00025313 -4.99222e-05 -8.15588e-05 7.58967e-07 -4.99222e-05 4.63522e-05 -0.00025313 -4.99222e-05 -0.000143311 8.81026e-05 -4.99222e-05 4.63522e-05 8.81026e-05 0.000202189 -0.0009933 -0.000420596 -0.000830046 -0.000241933 -0.000420596 -0.000143311 -0.000241933 9.11277e-05 -0.000830046 -0.000241933 -0.000506581 6.4945e-05 -0.000241933 9.11277e-05 6.4945e-05 0.000464767 -0.000143311 8.81026e-05 9.11277e-05 0.000347882 8.81026e-05 0.000202189 0.000347882 0.000481221 9.11277e-05 0.000347882 0.000464767 0.000743752 0.000347882 0.000481221 0.000743752 0.000896873 7.58967e-07 2.89222e-06 4.63522e-05 5.49905e-05 2.89222e-06 -8.02615e-05 5.49905e-05 -2.5169e-05 4.63522e-05 5.49905e-05 0.000202189 0.000220783 5.49905e-05 -2.5169e-05 0.000220783 0.000145912 -8.02615e-05 -0.000249665 -2.5169e-05 -0.000192343 -0.000249665 -0.000505461 -0.000192343 -0.000445318 -2.5169e-05 -0.000192343 0.000145912 -1.85691e-05 -0.000192343 -0.000445318 -1.85691e-05 -0.000270269 0.000202189 0.000220783 0.000481221 0.00051103 0.000220783 0.000145912 0.00051103 0.000442162 0.000481221 0.00051103 0.000896873 0.000937934 0.00051103 0.000442162 0.000937934 0.0008747 0.000145912 -1.85691e-05 0.000442162 0.000279871 -1.85691e-05 -0.000270269 0.000279871 2.75076e-05 0.000442162 0.000279871 0.0008747 0.000713336 0.000279871 2.75076e-05 0.000713336 0.00045792 0.00032127 -0.000118936 -5.62258e-05 -0.000399104 -0.000118936 -0.000677309 -0.000399104 -0.000831367 -5.62258e-05 -0.000399104 -0.000301307 -0.000664909 -0.000399104 -0.000831367 -0.000664909 -0.00112033 -0.000677309 -0.00134416 -0.000831367 -0.00134659 -0.00134416 -0.00210904 -0.00134659 -0.00193723 -0.000831367 -0.00134659 -0.00112033 -0.00166181 -0.00134659 -0.00193723 -0.00166181 -0.00228209 -0.000301307 -0.000664909 -0.000457415 -0.00080393 -0.000664909 -0.00112033 -0.00080393 -0.00123551 -0.000457415 -0.00080393 -0.000505461 -0.000846393 -0.00080393 -0.00123551 -0.000846393 -0.00126987 -0.00112033 -0.00166181 -0.00123551 -0.0017476 -0.00166181 -0.00228209 -0.0017476 -0.00233406 -0.00123551 -0.0017476 -0.00126987 -0.00177206 -0.0017476 -0.00233406 -0.00177206 -0.00234761 -0.00210904 -0.00296059 -0.00193723 -0.00259461 -0.00296059 -0.00388606 -0.00259461 -0.00330879 -0.00193723 -0.00259461 -0.00228209 -0.00297244 -0.00259461 -0.00330879 -0.00297244 -0.00372256 -0.00388606 -0.004871 -0.00330879 -0.00406837 -0.004871 -0.00589895 -0.00406837 -0.00486037 -0.00330879 -0.00406837 -0.00372256 -0.00452052 -0.00406837 -0.00486037 -0.00452052 -0.00535258 -0.00228209 -0.00297244 -0.00233406 -0.00298724 -0.00297244 -0.00372256 -0.00298724 -0.0036978 -0.00233406 -0.00298724 -0.00234761 -0.00298965 -0.00298724 -0.0036978 -0.00298965 -0.0036895 -0.00372256 -0.00452052 -0.0036978 -0.00445468 -0.00452052 -0.00535258 -0.00445468 -0.00524494 -0.0036978 -0.00445468 -0.0036895 -0.0044367 -0.00445468 -0.00524494 -0.0044367 -0.00521877 -0.000505461 -0.000846393 -0.000445318 -0.000782379 -0.000846393 -0.00126987 -0.000782379 -0.00120111 -0.000445318 -0.000782379 -0.000270269 -0.000607009 -0.000782379 -0.00120111 -0.000607009 -0.00102645 -0.00126987 -0.00177206 -0.00120111 -0.0016982 -0.00177206 -0.00234761 -0.0016982 -0.00226899 -0.00120111 -0.0016982 -0.00102645 -0.00152566 -0.0016982 -0.00226899 -0.00152566 -0.0021006 -0.000270269 -0.000607009 2.75076e-05 -0.000312391 -0.000607009 -0.00102645 -0.000312391 -0.000737582 2.75076e-05 -0.000312391 0.00045792 0.000111204 -0.000312391 -0.000737582 0.000111204 -0.000324745 -0.00102645 -0.00152566 -0.000737582 -0.00124554 -0.00152566 -0.0021006 -0.00124554 -0.00183282 -0.000737582 -0.00124554 -0.000324745 -0.000847864 -0.00124554 -0.00183282 -0.000847864 -0.00145539 -0.00234761 -0.00298965 -0.00226899 -0.00290734 -0.00298965 -0.0036895 -0.00290734 -0.00360525 -0.00226899 -0.00290734 -0.0021006 -0.00274581 -0.00290734 -0.00360525 -0.00274581 -0.00345391 -0.0036895 -0.0044367 -0.00360525 -0.00435282 -0.0044367 -0.00521877 -0.00435282 -0.00513796 -0.00360525 -0.00435282 -0.00345391 -0.0042155 -0.00435282 -0.00513796 -0.0042155 -0.00501877 -0.0021006 -0.00274581 -0.00183282 -0.00249462 -0.00274581 -0.00345391 -0.00249462 -0.0032242 -0.00183282 -0.00249462 -0.00145539 -0.00214322 -0.00249462 -0.0032242 -0.00214322 -0.00290532 -0.00345391 -0.0042155 -0.0032242 -0.00401263 -0.0042155 -0.00501877 -0.00401263 -0.00484833 -0.0032242 -0.00401263 -0.00290532 -0.00373328 -0.00401263 -0.00484833 -0.00373328 -0.00461578 -0.000506581 6.4945e-05 -1.40763e-05 0.000510282 6.4945e-05 0.000464767 0.000510282 0.000990655 -1.40763e-05 0.000510282 0.000656858 0.00110435 0.000510282 0.000990655 0.00110435 0.00168185 0.000464767 0.000743752 0.000990655 0.00128924 0.000743752 0.000896873 0.00128924 0.00146256 0.000990655 0.00128924 0.00168185 0.00199817 0.00128924 0.00146256 0.00199817 0.00219249 0.000656858 0.00110435 0.00151742 0.0018584 0.00110435 0.00168185 0.0018584 0.00255232 0.00151742 0.0018584 0.0025814 0.00278557 0.0018584 0.00255232 0.00278557 0.00361798 0.00168185 0.00199817 0.00255232 0.00288538 0.00199817 0.00219249 0.00288538 0.00310206 0.00255232 0.00288538 0.00361798 0.00396755 0.00288538 0.00310206 0.00396755 0.00420858 0.000896873 0.000937934 0.00146256 0.00151443 0.000937934 0.0008747 0.00151443 0.00145595 0.00146256 0.00151443 0.00219249 0.00225474 0.00151443 0.00145595 0.00225474 0.00220004 0.0008747 0.000713336 0.00145595 0.0012939 0.000713336 0.00045792 0.0012939 0.00103293 0.00145595 0.0012939 0.00220004 0.00203565 0.0012939 0.00103293 0.00203565 0.0017668 0.00219249 0.00225474 0.00310206 0.00317452 0.00225474 0.00220004 0.00317452 0.00312287 0.00310206 0.00317452 0.00420858 0.00429149 0.00317452 0.00312287 0.00429149 0.00424256 0.00220004 0.00203565 0.00312287 0.00295485 0.00203565 0.0017668 0.00295485 0.00267636 0.00312287 0.00295485 0.00424256 0.0040702 0.00295485 0.00267636 0.0040702 0.00378111 0.0025814 0.00278557 0.0038657 0.00390142 0.00278557 0.00361798 0.00390142 0.00489724 0.0038657 0.00390142 0.00539078 0.00522449 0.00390142 0.00489724 0.00522449 0.00641186 0.00361798 0.00396755 0.00489724 0.00526367 0.00396755 0.00420858 0.00526367 0.00553171 0.00489724 0.00526367 0.00641186 0.00679604 0.00526367 0.00553171 0.00679604 0.00709422 0.00539078 0.00522449 0.0071812 0.00677699 0.00522449 0.00641186 0.00677699 0.00818773 0.0071812 0.00677699 0.00926655 0.00858587 0.00677699 0.00818773 0.00858587 0.0102561 0.00641186 0.00679604 0.00818773 0.00859085 0.00679604 0.00709422 0.00859085 0.00892253 0.00818773 0.00859085 0.0102561 0.0106793 0.00859085 0.00892253 0.0106793 0.0110476 0.00420858 0.00429149 0.00553171 0.00562576 0.00429149 0.00424256 0.00562576 0.00557973 0.00553171 0.00562576 0.00709422 0.0072004 0.00562576 0.00557973 0.0072004 0.00715779 0.00424256 0.0040702 0.00557973 0.00540297 0.0040702 0.00378111 0.00540297 0.00510332 0.00557973 0.00540297 0.00715779 0.00697717 0.00540297 0.00510332 0.00697717 0.00666797 0.00709422 0.0072004 0.00892253 0.00904168 0.0072004 0.00715779 0.00904168 0.00900301 0.00892253 0.00904168 0.0110476 0.0111799 0.00904168 0.00900301 0.0111799 0.011145 0.00715779 0.00697717 0.00900301 0.00881942 0.00697717 0.00666797 0.00881942 0.00850249 0.00900301 0.00881942 0.011145 0.010959 0.00881942 0.00850249 0.010959 0.0106363 0.00045792 0.000111204 0.00103293 0.000675865 0.000111204 -0.000324745 0.000675865 0.000224505 0.00103293 0.000675865 0.0017668 0.00139632 0.000675865 0.000224505 0.00139632 0.000925601 -0.000324745 -0.000847864 0.000224505 -0.000319658 -0.000847864 -0.00145539 -0.000319658 -0.000954662 0.000224505 -0.000319658 0.000925601 0.000355413 -0.000319658 -0.000954662 0.000355413 -0.000313261 0.0017668 0.00139632 0.00267636 0.00229018 0.00139632 0.000925601 0.00229018 0.00179723 0.00267636 0.00229018 0.00378111 0.00337808 0.00229018 0.00179723 0.00337808 0.00286146 0.000925601 0.000355413 0.00179723 0.00119735 0.000355413 -0.000313261 0.00119735 0.000490326 0.00179723 0.00119735 0.00286146 0.00223002 0.00119735 0.000490326 0.00223002 0.00148204 -0.00145539 -0.00214322 -0.000954662 -0.00167725 -0.00214322 -0.00290532 -0.00167725 -0.00248226 -0.000954662 -0.00167725 -0.000313261 -0.00107826 -0.00167725 -0.00248226 -0.00107826 -0.00193553 -0.00290532 -0.00373328 -0.00248226 -0.00336195 -0.00373328 -0.00461578 -0.00336195 -0.00430538 -0.00248226 -0.00336195 -0.00193553 -0.00287828 -0.00336195 -0.00430538 -0.00287828 -0.00389627 -0.000313261 -0.00107826 0.000490326 -0.000323094 -0.00107826 -0.00193553 -0.000323094 -0.00124036 0.000490326 -0.000323094 0.00148204 0.000616486 -0.000323094 -0.00124036 0.000616486 -0.000366065 -0.00193553 -0.00287828 -0.00124036 -0.00225606 -0.00287828 -0.00389627 -0.00225606 -0.00336108 -0.00124036 -0.00225606 -0.000366065 -0.00146219 -0.00225606 -0.00336108 -0.00146219 -0.00266461 0.00378111 0.00337808 0.00510332 0.00468366 0.00337808 0.00286146 0.00468366 0.00414375 0.00510332 0.00468366 0.00666797 0.00623338 0.00468366 0.00414375 0.00623338 0.0056726 0.00286146 0.00223002 0.00414375 0.00348111 0.00223002 0.00148204 0.00348111 0.00269229 0.00414375 0.00348111 0.0056726 0.00498179 0.00348111 0.00269229 0.00498179 0.00415548 0.00666797 0.00623338 0.00850249 0.00805605 0.00623338 0.0056726 0.00805605 0.00747887 0.00850249 0.00805605 0.0106363 0.0101819 0.00805605 0.00747887 0.0101819 0.00959447 0.0056726 0.00498179 0.00747887 0.00676574 0.00498179 0.00415548 0.00676574 0.00590904 0.00747887 0.00676574 0.00959447 0.00886752 0.00676574 0.00590904 0.00886752 0.0079913 0.00148204 0.000616486 0.00269229 0.001774 0.000616486 -0.000366065 0.001774 0.000724272 0.00269229 0.001774 0.00415548 0.00318778 0.001774 0.000724272 0.00318778 0.00207356 -0.000366065 -0.00146219 0.000724272 -0.000456229 -0.00146219 -0.00266461 -0.000456229 -0.00176297 0.000724272 -0.000456229 0.00207356 0.000809821 -0.000456229 -0.00176297 0.000809821 -0.000602785 0.00415548 0.00318778 0.00590904 0.00489994 0.00318778 0.00207356 0.00489994 0.00372959 0.00590904 0.00489994 0.0079913 0.00695393 0.00489994 0.00372959 0.00695393 0.00574251 0.00207356 0.000809821 0.00372959 0.0023905 0.000809821 -0.000602785 0.0023905 0.000878118 0.00372959 0.0023905 0.00574251 0.00434435 0.0023905 0.000878118 0.00434435 0.00274845 -0.00589895 -0.00695126 -0.00486037 -0.00567015 -0.00695126 -0.00800711 -0.00567015 -0.00648144 -0.00486037 -0.00567015 -0.00535258 -0.00620326 -0.00567015 -0.00648144 -0.00620326 -0.00705536 -0.00800711 -0.00904362 -0.00648144 -0.00727659 -0.00904362 -0.0100362 -0.00727659 -0.00803686 -0.00648144 -0.00727659 -0.00705536 -0.00789026 -0.00727659 -0.00803686 -0.00789026 -0.00868835 -0.00535258 -0.00620326 -0.00524494 -0.00605393 -0.00620326 -0.00705536 -0.00605393 -0.00686523 -0.00524494 -0.00605393 -0.00521877 -0.00602133 -0.00605393 -0.00686523 -0.00602133 -0.00682811 -0.00705536 -0.00789026 -0.00686523 -0.00766107 -0.00789026 -0.00868835 -0.00766107 -0.00842266 -0.00686523 -0.00766107 -0.00682811 -0.00762133 -0.00766107 -0.00842266 -0.00762133 -0.00838203 -0.0100362 -0.0109594 -0.00803686 -0.00874303 -0.0109594 -0.0117873 -0.00874303 -0.00937607 -0.00803686 -0.00874303 -0.00868835 -0.00942964 -0.00874303 -0.00937607 -0.00942964 -0.0100946 -0.0117873 -0.0124951 -0.00937607 -0.00991819 -0.0124951 -0.0130604 -0.00991819 -0.010354 -0.00937607 -0.00991819 -0.0100946 -0.0106654 -0.00991819 -0.010354 -0.0106654 -0.0111268 -0.00868835 -0.00942964 -0.00842266 -0.00913087 -0.00942964 -0.0100946 -0.00913087 -0.00976711 -0.00842266 -0.00913087 -0.00838203 -0.00909083 -0.00913087 -0.00976711 -0.00909083 -0.00972879 -0.0100946 -0.0106654 -0.00976711 -0.0103144 -0.0106654 -0.0111268 -0.0103144 -0.0107587 -0.00976711 -0.0103144 -0.00972879 -0.0102786 -0.0103144 -0.0107587 -0.0102786 -0.0107256 -0.00521877 -0.00602133 -0.00513796 -0.00594649 -0.00602133 -0.00682811 -0.00594649 -0.00676205 -0.00513796 -0.00594649 -0.00501877 -0.00584951 -0.00594649 -0.00676205 -0.00584951 -0.00669105 -0.00682811 -0.00762133 -0.00676205 -0.00756654 -0.00762133 -0.00838203 -0.00756654 -0.00834035 -0.00676205 -0.00756654 -0.00669105 -0.00752455 -0.00756654 -0.00834035 -0.00752455 -0.00832931 -0.00501877 -0.00584951 -0.00484833 -0.00571695 -0.00584951 -0.00669105 -0.00571695 -0.00660125 -0.00484833 -0.00571695 -0.00461578 -0.00553828 -0.00571695 -0.00660125 -0.00553828 -0.00648281 -0.00669105 -0.00752455 -0.00660125 -0.00748134 -0.00752455 -0.00832931 -0.00748134 -0.00833489 -0.00660125 -0.00748134 -0.00648281 -0.00742808 -0.00748134 -0.00833489 -0.00742808 -0.0083497 -0.00838203 -0.00909083 -0.00834035 -0.00906331 -0.00909083 -0.00972879 -0.00906331 -0.00971543 -0.00834035 -0.00906331 -0.00832931 -0.00908363 -0.00906331 -0.00971543 -0.00908363 -0.00976572 -0.00972879 -0.0102786 -0.00971543 -0.0102782 -0.0102786 -0.0107256 -0.0102782 -0.0107359 -0.00971543 -0.0102782 -0.00976572 -0.0103551 -0.0102782 -0.0107359 -0.0103551 -0.0108341 -0.00832931 -0.00908363 -0.00833489 -0.00913806 -0.00908363 -0.00976572 -0.00913806 -0.00986654 -0.00833489 -0.00913806 -0.0083497 -0.00922102 -0.00913806 -0.00986654 -0.00922102 -0.0100143 -0.00976572 -0.0103551 -0.00986654 -0.0104971 -0.0103551 -0.0108341 -0.0104971 -0.0110092 -0.00986654 -0.0104971 -0.0100143 -0.0107027 -0.0104971 -0.0110092 -0.0107027 -0.0112619 -0.0130604 -0.0134654 -0.010354 -0.0106719 -0.0134654 -0.0136985 -0.0106719 -0.0108663 -0.010354 -0.0106719 -0.0111268 -0.011468 -0.0106719 -0.0108663 -0.011468 -0.0116845 -0.0136985 -0.0137588 -0.0108663 -0.0109367 -0.0137588 -0.013652 -0.0109367 -0.0109056 -0.0108663 -0.0109367 -0.0116845 -0.0117777 -0.0109367 -0.0109056 -0.0117777 -0.0117677 -0.0111268 -0.011468 -0.0107587 -0.01109 -0.011468 -0.0116845 -0.01109 -0.0113043 -0.0107587 -0.01109 -0.0107256 -0.0110596 -0.01109 -0.0113043 -0.0110596 -0.0112757 -0.0116845 -0.0117777 -0.0113043 -0.0114023 -0.0117777 -0.0117677 -0.0114023 -0.0114023 -0.0113043 -0.0114023 -0.0112757 -0.0113734 -0.0114023 -0.0114023 -0.0113734 -0.0113687 -0.013652 -0.0134386 -0.0109056 -0.0107416 -0.0134386 -0.0131341 -0.0107416 -0.0107812 -0.0109056 -0.0107416 -0.0117677 -0.0116301 -0.0107416 -0.0107812 -0.0116301 -0.0116642 -0.0131341 -0.0122587 -0.0107812 -0.00959408 -0.0122587 -0.0133433 -0.00959408 -0.0120939 -0.0107812 -0.00959408 -0.0116642 -0.0104875 -0.00959408 -0.0120939 -0.0104875 -0.0124419 -0.0117677 -0.0116301 -0.0114023 -0.0112723 -0.0116301 -0.0116642 -0.0112723 -0.0113078 -0.0114023 -0.0112723 -0.0113687 -0.0112268 -0.0112723 -0.0113078 -0.0112268 -0.0112286 -0.0116642 -0.0104875 -0.0113078 -0.0100994 -0.0104875 -0.0124419 -0.0100994 -0.0121283 -0.0113078 -0.0100994 -0.0112286 -0.00998941 -0.0100994 -0.0121283 -0.00998941 -0.0118367 -0.0107256 -0.0110596 -0.0107359 -0.0110769 -0.0110596 -0.0112757 -0.0110769 -0.0112952 -0.0107359 -0.0110769 -0.0108341 -0.0111893 -0.0110769 -0.0112952 -0.0111893 -0.011413 -0.0112757 -0.0113734 -0.0112952 -0.011389 -0.0113734 -0.0113687 -0.011389 -0.0113722 -0.0112952 -0.011389 -0.011413 -0.011502 -0.011389 -0.0113722 -0.011502 -0.0114692 -0.0108341 -0.0111893 -0.0110092 -0.0113869 -0.0111893 -0.011413 -0.0113869 -0.0116206 -0.0110092 -0.0113869 -0.0112619 -0.0116727 -0.0113869 -0.0116206 -0.0116727 -0.0119232 -0.011413 -0.011502 -0.0116206 -0.011706 -0.011502 -0.0114692 -0.011706 -0.0116557 -0.0116206 -0.011706 -0.0119232 -0.0120077 -0.011706 -0.0116557 -0.0120077 -0.0119393 -0.0113687 -0.0112268 -0.0113722 -0.011208 -0.0112268 -0.0112286 -0.011208 -0.0111717 -0.0113722 -0.011208 -0.0114692 -0.0112774 -0.011208 -0.0111717 -0.0112774 -0.0112004 -0.0112286 -0.00998941 -0.0111717 -0.00989002 -0.00998941 -0.0118367 -0.00989002 -0.011656 -0.0111717 -0.00989002 -0.0112004 -0.00987275 -0.00989002 -0.011656 -0.00987275 -0.0115703 -0.0114692 -0.0112774 -0.0116557 -0.0114328 -0.0112774 -0.0112004 -0.0114328 -0.0113146 -0.0116557 -0.0114328 -0.0119393 -0.0116824 -0.0114328 -0.0113146 -0.0116824 -0.0115214 -0.0112004 -0.00987275 -0.0113146 -0.00993319 -0.00987275 -0.0115703 -0.00993319 -0.0115874 -0.0113146 -0.00993319 -0.0115214 -0.0100756 -0.00993319 -0.0115874 -0.0100756 -0.0117028 -0.00461578 -0.00553828 -0.00430538 -0.00529791 -0.00553828 -0.00648281 -0.00529791 -0.00632078 -0.00430538 -0.00529791 -0.00389627 -0.00497492 -0.00529791 -0.00632078 -0.00497492 -0.00609484 -0.00648281 -0.00742808 -0.00632078 -0.00735108 -0.00742808 -0.0083497 -0.00735108 -0.00836186 -0.00632078 -0.00735108 -0.00609484 -0.00723141 -0.00735108 -0.00836186 -0.00723141 -0.00835482 -0.00389627 -0.00497492 -0.00336108 -0.00454139 -0.00497492 -0.00609484 -0.00454139 -0.00577731 -0.00336108 -0.00454139 -0.00266461 -0.00396062 -0.00454139 -0.00577731 -0.00396062 -0.00533095 -0.00609484 -0.00723141 -0.00577731 -0.0070427 -0.00723141 -0.00835482 -0.0070427 -0.0083047 -0.00577731 -0.0070427 -0.00533095 -0.00674843 -0.0070427 -0.0083047 -0.00674843 -0.00817734 -0.0083497 -0.00922102 -0.00836186 -0.00932303 -0.00922102 -0.0100143 -0.00932303 -0.0102026 -0.00836186 -0.00932303 -0.00835482 -0.00943074 -0.00932303 -0.0102026 -0.00943074 -0.0104218 -0.0100143 -0.0107027 -0.0102026 -0.0109686 -0.0107027 -0.0112619 -0.0109686 -0.0115922 -0.0102026 -0.0109686 -0.0104218 -0.0112899 -0.0109686 -0.0115922 -0.0112899 -0.0119995 -0.00835482 -0.00943074 -0.0083047 -0.00952414 -0.00943074 -0.0104218 -0.00952414 -0.0106571 -0.0083047 -0.00952414 -0.00817734 -0.0095733 -0.00952414 -0.0106571 -0.0095733 -0.0108846 -0.0104218 -0.0112899 -0.0106571 -0.0116575 -0.0112899 -0.0119995 -0.0116575 -0.0124811 -0.0106571 -0.0116575 -0.0108846 -0.0120552 -0.0116575 -0.0124811 -0.0120552 -0.0130295 -0.00266461 -0.00396062 -0.00176297 -0.00318565 -0.00396062 -0.00533095 -0.00318565 -0.00470662 -0.00176297 -0.00318565 -0.000602785 -0.00215787 -0.00318565 -0.00470662 -0.00215787 -0.00384117 -0.00533095 -0.00674843 -0.00470662 -0.00629885 -0.00674843 -0.00817734 -0.00629885 -0.00792449 -0.00470662 -0.00629885 -0.00384117 -0.00562768 -0.00629885 -0.00792449 -0.00562768 -0.00747922 -0.000602785 -0.00215787 0.000878118 -0.000806898 -0.00215787 -0.00384117 -0.000806898 -0.00265605 0.000878118 -0.000806898 0.00274845 0.000947745 -0.000806898 -0.00265605 0.000947745 -0.00105796 -0.00384117 -0.00562768 -0.00265605 -0.00464931 -0.00562768 -0.00747922 -0.00464931 -0.0