# vtk DataFile Version 3.0
#This file was generated by the deal.II library on 2026/1/5 at 14:19:30
ASCII
DATASET UNSTRUCTURED_GRID

POINTS 4096 double
0 0 0
0.03125 0 0
0 0.03125 0
0.03125 0.03125 0
0.03125 0 0
0.0625 0 0
0.03125 0.03125 0
0.0625 0.03125 0
0 0.03125 0
0.03125 0.03125 0
0 0.0625 0
0.03125 0.0625 0
0.03125 0.03125 0
0.0625 0.03125 0
0.03125 0.0625 0
0.0625 0.0625 0
0.0625 0 0
0.09375 0 0
0.0625 0.03125 0
0.09375 0.03125 0
0.09375 0 0
0.125 0 0
0.09375 0.03125 0
0.125 0.03125 0
0.0625 0.03125 0
0.09375 0.03125 0
0.0625 0.0625 0
0.09375 0.0625 0
0.09375 0.03125 0
0.125 0.03125 0
0.09375 0.0625 0
0.125 0.0625 0
0 0.0625 0
0.03125 0.0625 0
0 0.09375 0
0.03125 0.09375 0
0.03125 0.0625 0
0.0625 0.0625 0
0.03125 0.09375 0
0.0625 0.09375 0
0 0.09375 0
0.03125 0.09375 0
0 0.125 0
0.03125 0.125 0
0.03125 0.09375 0
0.0625 0.09375 0
0.03125 0.125 0
0.0625 0.125 0
0.0625 0.0625 0
0.09375 0.0625 0
0.0625 0.09375 0
0.09375 0.09375 0
0.09375 0.0625 0
0.125 0.0625 0
0.09375 0.09375 0
0.125 0.09375 0
0.0625 0.09375 0
0.09375 0.09375 0
0.0625 0.125 0
0.09375 0.125 0
0.09375 0.09375 0
0.125 0.09375 0
0.09375 0.125 0
0.125 0.125 0
0.125 0 0
0.15625 0 0
0.125 0.03125 0
0.15625 0.03125 0
0.15625 0 0
0.1875 0 0
0.15625 0.03125 0
0.1875 0.03125 0
0.125 0.03125 0
0.15625 0.03125 0
0.125 0.0625 0
0.15625 0.0625 0
0.15625 0.03125 0
0.1875 0.03125 0
0.15625 0.0625 0
0.1875 0.0625 0
0.1875 0 0
0.21875 0 0
0.1875 0.03125 0
0.21875 0.03125 0
0.21875 0 0
0.25 0 0
0.21875 0.03125 0
0.25 0.03125 0
0.1875 0.03125 0
0.21875 0.03125 0
0.1875 0.0625 0
0.21875 0.0625 0
0.21875 0.03125 0
0.25 0.03125 0
0.21875 0.0625 0
0.25 0.0625 0
0.125 0.0625 0
0.15625 0.0625 0
0.125 0.09375 0
0.15625 0.09375 0
0.15625 0.0625 0
0.1875 0.0625 0
0.15625 0.09375 0
0.1875 0.09375 0
0.125 0.09375 0
0.15625 0.09375 0
0.125 0.125 0
0.15625 0.125 0
0.15625 0.09375 0
0.1875 0.09375 0
0.15625 0.125 0
0.1875 0.125 0
0.1875 0.0625 0
0.21875 0.0625 0
0.1875 0.09375 0
0.21875 0.09375 0
0.21875 0.0625 0
0.25 0.0625 0
0.21875 0.09375 0
0.25 0.09375 0
0.1875 0.09375 0
0.21875 0.09375 0
0.1875 0.125 0
0.21875 0.125 0
0.21875 0.09375 0
0.25 0.09375 0
0.21875 0.125 0
0.25 0.125 0
0 0.125 0
0.03125 0.125 0
0 0.15625 0
0.03125 0.15625 0
0.03125 0.125 0
0.0625 0.125 0
0.03125 0.15625 0
0.0625 0.15625 0
0 0.15625 0
0.03125 0.15625 0
0 0.1875 0
0.03125 0.1875 0
0.03125 0.15625 0
0.0625 0.15625 0
0.03125 0.1875 0
0.0625 0.1875 0
0.0625 0.125 0
0.09375 0.125 0
0.0625 0.15625 0
0.09375 0.15625 0
0.09375 0.125 0
0.125 0.125 0
0.09375 0.15625 0
0.125 0.15625 0
0.0625 0.15625 0
0.09375 0.15625 0
0.0625 0.1875 0
0.09375 0.1875 0
0.09375 0.15625 0
0.125 0.15625 0
0.09375 0.1875 0
0.125 0.1875 0
0 0.1875 0
0.03125 0.1875 0
0 0.21875 0
0.03125 0.21875 0
0.03125 0.1875 0
0.0625 0.1875 0
0.03125 0.21875 0
0.0625 0.21875 0
0 0.21875 0
0.03125 0.21875 0
0 0.25 0
0.03125 0.25 0
0.03125 0.21875 0
0.0625 0.21875 0
0.03125 0.25 0
0.0625 0.25 0
0.0625 0.1875 0
0.09375 0.1875 0
0.0625 0.21875 0
0.09375 0.21875 0
0.09375 0.1875 0
0.125 0.1875 0
0.09375 0.21875 0
0.125 0.21875 0
0.0625 0.21875 0
0.09375 0.21875 0
0.0625 0.25 0
0.09375 0.25 0
0.09375 0.21875 0
0.125 0.21875 0
0.09375 0.25 0
0.125 0.25 0
0.125 0.125 0
0.15625 0.125 0
0.125 0.15625 0
0.15625 0.15625 0
0.15625 0.125 0
0.1875 0.125 0
0.15625 0.15625 0
0.1875 0.15625 0
0.125 0.15625 0
0.15625 0.15625 0
0.125 0.1875 0
0.15625 0.1875 0
0.15625 0.15625 0
0.1875 0.15625 0
0.15625 0.1875 0
0.1875 0.1875 0
0.1875 0.125 0
0.21875 0.125 0
0.1875 0.15625 0
0.21875 0.15625 0
0.21875 0.125 0
0.25 0.125 0
0.21875 0.15625 0
0.25 0.15625 0
0.1875 0.15625 0
0.21875 0.15625 0
0.1875 0.1875 0
0.21875 0.1875 0
0.21875 0.15625 0
0.25 0.15625 0
0.21875 0.1875 0
0.25 0.1875 0
0.125 0.1875 0
0.15625 0.1875 0
0.125 0.21875 0
0.15625 0.21875 0
0.15625 0.1875 0
0.1875 0.1875 0
0.15625 0.21875 0
0.1875 0.21875 0
0.125 0.21875 0
0.15625 0.21875 0
0.125 0.25 0
0.15625 0.25 0
0.15625 0.21875 0
0.1875 0.21875 0
0.15625 0.25 0
0.1875 0.25 0
0.1875 0.1875 0
0.21875 0.1875 0
0.1875 0.21875 0
0.21875 0.21875 0
0.21875 0.1875 0
0.25 0.1875 0
0.21875 0.21875 0
0.25 0.21875 0
0.1875 0.21875 0
0.21875 0.21875 0
0.1875 0.25 0
0.21875 0.25 0
0.21875 0.21875 0
0.25 0.21875 0
0.21875 0.25 0
0.25 0.25 0
0.25 0 0
0.28125 0 0
0.25 0.03125 0
0.28125 0.03125 0
0.28125 0 0
0.3125 0 0
0.28125 0.03125 0
0.3125 0.03125 0
0.25 0.03125 0
0.28125 0.03125 0
0.25 0.0625 0
0.28125 0.0625 0
0.28125 0.03125 0
0.3125 0.03125 0
0.28125 0.0625 0
0.3125 0.0625 0
0.3125 0 0
0.34375 0 0
0.3125 0.03125 0
0.34375 0.03125 0
0.34375 0 0
0.375 0 0
0.34375 0.03125 0
0.375 0.03125 0
0.3125 0.03125 0
0.34375 0.03125 0
0.3125 0.0625 0
0.34375 0.0625 0
0.34375 0.03125 0
0.375 0.03125 0
0.34375 0.0625 0
0.375 0.0625 0
0.25 0.0625 0
0.28125 0.0625 0
0.25 0.09375 0
0.28125 0.09375 0
0.28125 0.0625 0
0.3125 0.0625 0
0.28125 0.09375 0
0.3125 0.09375 0
0.25 0.09375 0
0.28125 0.09375 0
0.25 0.125 0
0.28125 0.125 0
0.28125 0.09375 0
0.3125 0.09375 0
0.28125 0.125 0
0.3125 0.125 0
0.3125 0.0625 0
0.34375 0.0625 0
0.3125 0.09375 0
0.34375 0.09375 0
0.34375 0.0625 0
0.375 0.0625 0
0.34375 0.09375 0
0.375 0.09375 0
0.3125 0.09375 0
0.34375 0.09375 0
0.3125 0.125 0
0.34375 0.125 0
0.34375 0.09375 0
0.375 0.09375 0
0.34375 0.125 0
0.375 0.125 0
0.375 0 0
0.40625 0 0
0.375 0.03125 0
0.40625 0.03125 0
0.40625 0 0
0.4375 0 0
0.40625 0.03125 0
0.4375 0.03125 0
0.375 0.03125 0
0.40625 0.03125 0
0.375 0.0625 0
0.40625 0.0625 0
0.40625 0.03125 0
0.4375 0.03125 0
0.40625 0.0625 0
0.4375 0.0625 0
0.4375 0 0
0.46875 0 0
0.4375 0.03125 0
0.46875 0.03125 0
0.46875 0 0
0.5 0 0
0.46875 0.03125 0
0.5 0.03125 0
0.4375 0.03125 0
0.46875 0.03125 0
0.4375 0.0625 0
0.46875 0.0625 0
0.46875 0.03125 0
0.5 0.03125 0
0.46875 0.0625 0
0.5 0.0625 0
0.375 0.0625 0
0.40625 0.0625 0
0.375 0.09375 0
0.40625 0.09375 0
0.40625 0.0625 0
0.4375 0.0625 0
0.40625 0.09375 0
0.4375 0.09375 0
0.375 0.09375 0
0.40625 0.09375 0
0.375 0.125 0
0.40625 0.125 0
0.40625 0.09375 0
0.4375 0.09375 0
0.40625 0.125 0
0.4375 0.125 0
0.4375 0.0625 0
0.46875 0.0625 0
0.4375 0.09375 0
0.46875 0.09375 0
0.46875 0.0625 0
0.5 0.0625 0
0.46875 0.09375 0
0.5 0.09375 0
0.4375 0.09375 0
0.46875 0.09375 0
0.4375 0.125 0
0.46875 0.125 0
0.46875 0.09375 0
0.5 0.09375 0
0.46875 0.125 0
0.5 0.125 0
0.25 0.125 0
0.28125 0.125 0
0.25 0.15625 0
0.28125 0.15625 0
0.28125 0.125 0
0.3125 0.125 0
0.28125 0.15625 0
0.3125 0.15625 0
0.25 0.15625 0
0.28125 0.15625 0
0.25 0.1875 0
0.28125 0.1875 0
0.28125 0.15625 0
0.3125 0.15625 0
0.28125 0.1875 0
0.3125 0.1875 0
0.3125 0.125 0
0.34375 0.125 0
0.3125 0.15625 0
0.34375 0.15625 0
0.34375 0.125 0
0.375 0.125 0
0.34375 0.15625 0
0.375 0.15625 0
0.3125 0.15625 0
0.34375 0.15625 0
0.3125 0.1875 0
0.34375 0.1875 0
0.34375 0.15625 0
0.375 0.15625 0
0.34375 0.1875 0
0.375 0.1875 0
0.25 0.1875 0
0.28125 0.1875 0
0.25 0.21875 0
0.28125 0.21875 0
0.28125 0.1875 0
0.3125 0.1875 0
0.28125 0.21875 0
0.3125 0.21875 0
0.25 0.21875 0
0.28125 0.21875 0
0.25 0.25 0
0.28125 0.25 0
0.28125 0.21875 0
0.3125 0.21875 0
0.28125 0.25 0
0.3125 0.25 0
0.3125 0.1875 0
0.34375 0.1875 0
0.3125 0.21875 0
0.34375 0.21875 0
0.34375 0.1875 0
0.375 0.1875 0
0.34375 0.21875 0
0.375 0.21875 0
0.3125 0.21875 0
0.34375 0.21875 0
0.3125 0.25 0
0.34375 0.25 0
0.34375 0.21875 0
0.375 0.21875 0
0.34375 0.25 0
0.375 0.25 0
0.375 0.125 0
0.40625 0.125 0
0.375 0.15625 0
0.40625 0.15625 0
0.40625 0.125 0
0.4375 0.125 0
0.40625 0.15625 0
0.4375 0.15625 0
0.375 0.15625 0
0.40625 0.15625 0
0.375 0.1875 0
0.40625 0.1875 0
0.40625 0.15625 0
0.4375 0.15625 0
0.40625 0.1875 0
0.4375 0.1875 0
0.4375 0.125 0
0.46875 0.125 0
0.4375 0.15625 0
0.46875 0.15625 0
0.46875 0.125 0
0.5 0.125 0
0.46875 0.15625 0
0.5 0.15625 0
0.4375 0.15625 0
0.46875 0.15625 0
0.4375 0.1875 0
0.46875 0.1875 0
0.46875 0.15625 0
0.5 0.15625 0
0.46875 0.1875 0
0.5 0.1875 0
0.375 0.1875 0
0.40625 0.1875 0
0.375 0.21875 0
0.40625 0.21875 0
0.40625 0.1875 0
0.4375 0.1875 0
0.40625 0.21875 0
0.4375 0.21875 0
0.375 0.21875 0
0.40625 0.21875 0
0.375 0.25 0
0.40625 0.25 0
0.40625 0.21875 0
0.4375 0.21875 0
0.40625 0.25 0
0.4375 0.25 0
0.4375 0.1875 0
0.46875 0.1875 0
0.4375 0.21875 0
0.46875 0.21875 0
0.46875 0.1875 0
0.5 0.1875 0
0.46875 0.21875 0
0.5 0.21875 0
0.4375 0.21875 0
0.46875 0.21875 0
0.4375 0.25 0
0.46875 0.25 0
0.46875 0.21875 0
0.5 0.21875 0
0.46875 0.25 0
0.5 0.25 0
0 0.25 0
0.03125 0.25 0
0 0.28125 0
0.03125 0.28125 0
0.03125 0.25 0
0.0625 0.25 0
0.03125 0.28125 0
0.0625 0.28125 0
0 0.28125 0
0.03125 0.28125 0
0 0.3125 0
0.03125 0.3125 0
0.03125 0.28125 0
0.0625 0.28125 0
0.03125 0.3125 0
0.0625 0.3125 0
0.0625 0.25 0
0.09375 0.25 0
0.0625 0.28125 0
0.09375 0.28125 0
0.09375 0.25 0
0.125 0.25 0
0.09375 0.28125 0
0.125 0.28125 0
0.0625 0.28125 0
0.09375 0.28125 0
0.0625 0.3125 0
0.09375 0.3125 0
0.09375 0.28125 0
0.125 0.28125 0
0.09375 0.3125 0
0.125 0.3125 0
0 0.3125 0
0.03125 0.3125 0
0 0.34375 0
0.03125 0.34375 0
0.03125 0.3125 0
0.0625 0.3125 0
0.03125 0.34375 0
0.0625 0.34375 0
0 0.34375 0
0.03125 0.34375 0
0 0.375 0
0.03125 0.375 0
0.03125 0.34375 0
0.0625 0.34375 0
0.03125 0.375 0
0.0625 0.375 0
0.0625 0.3125 0
0.09375 0.3125 0
0.0625 0.34375 0
0.09375 0.34375 0
0.09375 0.3125 0
0.125 0.3125 0
0.09375 0.34375 0
0.125 0.34375 0
0.0625 0.34375 0
0.09375 0.34375 0
0.0625 0.375 0
0.09375 0.375 0
0.09375 0.34375 0
0.125 0.34375 0
0.09375 0.375 0
0.125 0.375 0
0.125 0.25 0
0.15625 0.25 0
0.125 0.28125 0
0.15625 0.28125 0
0.15625 0.25 0
0.1875 0.25 0
0.15625 0.28125 0
0.1875 0.28125 0
0.125 0.28125 0
0.15625 0.28125 0
0.125 0.3125 0
0.15625 0.3125 0
0.15625 0.28125 0
0.1875 0.28125 0
0.15625 0.3125 0
0.1875 0.3125 0
0.1875 0.25 0
0.21875 0.25 0
0.1875 0.28125 0
0.21875 0.28125 0
0.21875 0.25 0
0.25 0.25 0
0.21875 0.28125 0
0.25 0.28125 0
0.1875 0.28125 0
0.21875 0.28125 0
0.1875 0.3125 0
0.21875 0.3125 0
0.21875 0.28125 0
0.25 0.28125 0
0.21875 0.3125 0
0.25 0.3125 0
0.125 0.3125 0
0.15625 0.3125 0
0.125 0.34375 0
0.15625 0.34375 0
0.15625 0.3125 0
0.1875 0.3125 0
0.15625 0.34375 0
0.1875 0.34375 0
0.125 0.34375 0
[...]
POINT_DATA 4096
SCALARS p double 1
LOOKUP_TABLE default
-1.81302e-07 0.000130298 -0.000130905 1.64954e-08 0.000130298 0.000314596 1.64954e-08 7.6206e-05 -0.000130905 1.64954e-08 -0.000317898 -7.53399e-05 1.64954e-08 7.6206e-05 -7.53399e-05 3.08224e-06 0.000314596 0.000330451 7.6206e-05 4.89504e-05 0.000330451 0.000131194 4.89504e-05 -0.000127174 7.6206e-05 4.89504e-05 3.08224e-06 -4.1142e-05 4.89504e-05 -0.000127174 -4.1142e-05 -0.000245561 -0.000317898 -7.53399e-05 -0.000341146 -4.66879e-05 -7.53399e-05 3.08224e-06 -4.66879e-05 5.50682e-05 -0.000341146 -4.66879e-05 -0.000151979 0.000134221 -4.66879e-05 5.50682e-05 0.000134221 0.000273441 3.08224e-06 -4.1142e-05 5.50682e-05 1.33823e-05 -4.1142e-05 -0.000245561 1.33823e-05 -0.000190283 5.50682e-05 1.33823e-05 0.000273441 0.000234652 1.33823e-05 -0.000190283 0.000234652 3.0033e-05 0.000131194 -0.00027915 -0.000127174 -0.000458966 -0.00027915 -0.000885574 -0.000458966 -0.000943348 -0.000127174 -0.000458966 -0.000245561 -0.00061319 -0.000458966 -0.000943348 -0.00061319 -0.00114363 -0.000885574 -0.0016744 -0.000943348 -0.0015729 -0.0016744 -0.00263312 -0.0015729 -0.00233877 -0.000943348 -0.0015729 -0.00114363 -0.00183094 -0.0015729 -0.00233877 -0.00183094 -0.00266663 -0.000245561 -0.00061319 -0.000190283 -0.000553964 -0.00061319 -0.00114363 -0.000553964 -0.00107628 -0.000190283 -0.000553964 3.0033e-05 -0.000340177 -0.000553964 -0.00107628 -0.000340177 -0.000872027 -0.00114363 -0.00183094 -0.00107628 -0.001752 -0.00183094 -0.00266663 -0.001752 -0.00257336 -0.00107628 -0.001752 -0.000872027 -0.00155999 -0.001752 -0.00257336 -0.00155999 -0.00239619 -0.000151979 0.000134221 0.000252603 0.000480281 0.000134221 0.000273441 0.000480281 0.000668211 0.000252603 0.000480281 0.000869259 0.000997964 0.000480281 0.000668211 0.000997964 0.00124954 0.000273441 0.000234652 0.000668211 0.000627726 0.000234652 3.0033e-05 0.000627726 0.00042225 0.000668211 0.000627726 0.00124954 0.00120156 0.000627726 0.00042225 0.00120156 0.0009927 0.000869259 0.000997964 0.00170055 0.00169314 0.000997964 0.00124954 0.00169314 0.00202612 0.00170055 0.00169314 0.00275491 0.00257414 0.00169314 0.00202612 0.00257414 0.00300842 0.00124954 0.00120156 0.00202612 0.00196524 0.00120156 0.0009927 0.00196524 0.00175018 0.00202612 0.00196524 0.00300842 0.00292954 0.00196524 0.00175018 0.00292954 0.00270538 3.0033e-05 -0.000340177 0.00042225 4.34552e-05 -0.000340177 -0.000872027 4.34552e-05 -0.000501762 0.00042225 4.34552e-05 0.0009927 0.000600305 4.34552e-05 -0.000501762 0.000600305 3.4626e-05 -0.000872027 -0.00155999 -0.000501762 -0.0012076 -0.00155999 -0.00239619 -0.0012076 -0.00206575 -0.000501762 -0.0012076 3.4626e-05 -0.00069844 -0.0012076 -0.00206575 -0.00069844 -0.00159001 0.0009927 0.000600305 0.00175018 0.00133883 0.000600305 3.4626e-05 0.00133883 0.000745479 0.00175018 0.00133883 0.00270538 0.00226921 0.00133883 0.000745479 0.00226921 0.00164033 3.4626e-05 -0.00069844 0.000745479 -2.40716e-05 -0.00069844 -0.00159001 -2.40716e-05 -0.000960247 0.000745479 -2.40716e-05 0.00164033 0.000824324 -2.40716e-05 -0.000960247 0.000824324 -0.000168402 -0.00263312 -0.00374893 -0.00233877 -0.00323097 -0.00374893 -0.00500782 -0.00323097 -0.00423831 -0.00233877 -0.00323097 -0.00266663 -0.00364026 -0.00323097 -0.00423831 -0.00364026 -0.00473981 -0.00500782 -0.00639432 -0.00423831 -0.00534839 -0.00639432 -0.00789146 -0.00534839 -0.00654757 -0.00423831 -0.00534839 -0.00473981 -0.0059518 -0.00534839 -0.00654757 -0.0059518 -0.00726135 -0.00266663 -0.00364026 -0.00257336 -0.0035305 -0.00364026 -0.00473981 -0.0035305 -0.00461181 -0.00257336 -0.0035305 -0.00239619 -0.00337075 -0.0035305 -0.00461181 -0.00337075 -0.00447198 -0.00473981 -0.0059518 -0.00461181 -0.00580415 -0.0059518 -0.00726135 -0.00580415 -0.00709296 -0.00461181 -0.00580415 -0.00447198 -0.0056866 -0.00580415 -0.00709296 -0.0056866 -0.00699987 -0.00789146 -0.00948093 -0.00654757 -0.00782112 -0.00948093 -0.0111431 -0.00782112 -0.00915331 -0.00654757 -0.00782112 -0.00726135 -0.00865238 -0.00782112 -0.00915331 -0.00865238 -0.0101077 -0.0111431 -0.0128575 -0.00915331 -0.0105276 -0.0128575 -0.0146026 -0.0105276 -0.0119266 -0.00915331 -0.0105276 -0.0101077 -0.0116091 -0.0105276 -0.0119266 -0.0116091 -0.0131378 -0.00726135 -0.00865238 -0.00709296 -0.00846244 -0.00865238 -0.0101077 -0.00846244 -0.00989568 -0.00709296 -0.00846244 -0.00699987 -0.00839578 -0.00846244 -0.00989568 -0.00839578 -0.00985714 -0.0101077 -0.0116091 -0.00989568 -0.0113749 -0.0116091 -0.0131378 -0.0113749 -0.0128813 -0.00989568 -0.0113749 -0.00985714 -0.0113658 -0.0113749 -0.0128813 -0.0113658 -0.0129029 -0.00239619 -0.00337075 -0.00206575 -0.00306611 -0.00337075 -0.00447198 -0.00306611 -0.00419674 -0.00206575 -0.00306611 -0.00159001 -0.00262953 -0.00306611 -0.00419674 -0.00262953 -0.00380462 -0.00447198 -0.0056866 -0.00419674 -0.00544409 -0.0056866 -0.00699987 -0.00544409 -0.00679311 -0.00419674 -0.00544409 -0.00380462 -0.00510125 -0.00544409 -0.00679311 -0.00510125 -0.00650389 -0.00159001 -0.00262953 -0.000960247 -0.00205191 -0.00262953 -0.00380462 -0.00205191 -0.00328605 -0.000960247 -0.00205191 -0.000168402 -0.00132597 -0.00205191 -0.00328605 -0.00132597 -0.00263459 -0.00380462 -0.00510125 -0.00328605 -0.00464799 -0.00510125 -0.00650389 -0.00464799 -0.00612152 -0.00328605 -0.00464799 -0.00263459 -0.00407876 -0.00464799 -0.00612152 -0.00407876 -0.00564138 -0.00699987 -0.00839578 -0.00679311 -0.00822745 -0.00839578 -0.00985714 -0.00822745 -0.00972957 -0.00679311 -0.00822745 -0.00650389 -0.00799565 -0.00822745 -0.00972957 -0.00799565 -0.00955844 -0.00985714 -0.0113658 -0.00972957 -0.011281 -0.0113658 -0.0129029 -0.011281 -0.0128622 -0.00972957 -0.011281 -0.00955844 -0.0111731 -0.011281 -0.0128622 -0.0111731 -0.0128197 -0.00650389 -0.00799565 -0.00612152 -0.00768907 -0.00799565 -0.00955844 -0.00768907 -0.00933178 -0.00612152 -0.00768907 -0.00564138 -0.00730402 -0.00768907 -0.00933178 -0.00730402 -0.00904692 -0.00955844 -0.0111731 -0.00933178 -0.0110298 -0.0111731 -0.0128197 -0.0110298 -0.0127622 -0.00933178 -0.0110298 -0.00904692 -0.0108493 -0.0110298 -0.0127622 -0.0108493 -0.0126893 0.00275491 0.00257414 0.00404538 0.00365224 0.00257414 0.00300842 0.00365224 0.00420948 0.00404538 0.00365224 0.00558885 0.00494173 0.00365224 0.00420948 0.00494173 0.00564547 0.00300842 0.00292954 0.00420948 0.00410764 0.00292954 0.00270538 0.00410764 0.00387138 0.00420948 0.00410764 0.00564547 0.00551554 0.00410764 0.00387138 0.00551554 0.00526406 0.00558885 0.00494173 0.00740598 0.00646006 0.00494173 0.00564547 0.00646006 0.00733601 0.00740598 0.00646006 0.00952148 0.00822819 0.00646006 0.00733601 0.00822819 0.00930455 0.00564547 0.00551554 0.00733601 0.00717252 0.00551554 0.00526406 0.00717252 0.00690243 0.00733601 0.00717252 0.00930455 0.0091016 0.00717252 0.00690243 0.0091016 0.00880909 0.00270538 0.00226921 0.00387138 0.00340415 0.00226921 0.00164033 0.00340415 0.00273133 0.00387138 0.00340415 0.00526406 0.00475902 0.00340415 0.00273133 0.00475902 0.00403311 0.00164033 0.000824324 0.00273133 0.00185822 0.000824324 -0.000168402 0.00185822 0.000796246 0.00273133 0.00185822 0.00403311 0.00309137 0.00185822 0.000796246 0.00309137 0.00194651 0.00526406 0.00475902 0.00690243 0.00635218 0.00475902 0.00403311 0.00635218 0.00556316 0.00690243 0.00635218 0.00880909 0.00820534 0.00635218 0.00556316 0.00820534 0.00734202 0.00403311 0.00309137 0.00556316 0.0045402 0.00309137 0.00194651 0.0045402 0.00329759 0.00556316 0.0045402 0.00734202 0.00622388 0.0045402 0.00329759 0.00622388 0.00486716 0.00952148 0.00822819 0.0119646 0.010271 0.00822819 0.00930455 0.010271 0.0115791 0.0119646 0.010271 0.0147699 0.012618 0.010271 0.0115791 0.012618 0.0141927 0.00930455 0.0091016 0.0115791 0.0113301 0.0091016 0.00880909 0.0113301 0.0110107 0.0115791 0.0113301 0.0141927 0.0138904 0.0113301 0.0110107 0.0138904 0.0135388 0.0147699 0.012618 0.0179779 0.0153042 0.012618 0.0141927 0.0153042 0.0171848 0.0179779 0.0153042 0.021637 0.0183715 0.0153042 0.0171848 0.0183715 0.0206026 0.0141927 0.0138904 0.0171848 0.0168208 0.0138904 0.0135388 0.0168208 0.0164305 0.0171848 0.0168208 0.0206026 0.0201672 0.0168208 0.0164305 0.0201672 0.0197296 0.00880909 0.00820534 0.0110107 0.010344 0.00820534 0.00734202 0.010344 0.00939366 0.0110107 0.010344 0.0135388 0.012798 0.010344 0.00939366 0.012798 0.0117459 0.00734202 0.00622388 0.00939366 0.00816461 0.00622388 0.00486716 0.00816461 0.00667555 0.00939366 0.00816461 0.0117459 0.0103879 0.00816461 0.00667555 0.0103879 0.0087459 0.0135388 0.012798 0.0164305 0.0156023 0.012798 0.0117459 0.0156023 0.014431 0.0164305 0.0156023 0.0197296 0.0187978 0.0156023 0.014431 0.0187978 0.0174862 0.0117459 0.0103879 0.014431 0.0129231 0.0103879 0.0087459 0.0129231 0.0111043 0.014431 0.0129231 0.0174862 0.0158032 0.0129231 0.0111043 0.0158032 0.0137799 -0.000168402 -0.00132597 0.000796246 -0.000441811 -0.00132597 -0.00263459 -0.000441811 -0.00184116 0.000796246 -0.000441811 0.00194651 0.000612377 -0.000441811 -0.00184116 0.000612377 -0.000894992 -0.00263459 -0.00407876 -0.00184116 -0.00338527 -0.00407876 -0.00564138 -0.00338527 -0.00505602 -0.00184116 -0.00338527 -0.000894992 -0.00255784 -0.00338527 -0.00505602 -0.00255784 -0.00435682 0.00194651 0.000612377 0.00329759 0.00185055 0.000612377 -0.000894992 0.00185055 0.00021658 0.00329759 0.00185055 0.00486716 0.00328882 0.00185055 0.00021658 0.00328882 0.00150815 -0.000894992 -0.00255784 0.00021658 -0.00158507 -0.00255784 -0.00435682 -0.00158507 -0.00353361 0.00021658 -0.00158507 0.00150815 -0.000453838 -0.00158507 -0.00353361 -0.000453838 -0.0025747 -0.00564138 -0.00730402 -0.00505602 -0.00683391 -0.00730402 -0.00904692 -0.00683391 -0.00869815 -0.00505602 -0.00683391 -0.00435682 -0.00627121 -0.00683391 -0.00869815 -0.00627121 -0.00827901 -0.00904692 -0.0108493 -0.00869815 -0.0106268 -0.0108493 -0.0126893 -0.0106268 -0.012597 -0.00869815 -0.0106268 -0.00827901 -0.0103571 -0.0106268 -0.012597 -0.0103571 -0.0124813 -0.00435682 -0.00627121 -0.00353361 -0.00560695 -0.00627121 -0.00827901 -0.00560695 -0.00778173 -0.00353361 -0.00560695 -0.0025747 -0.00483078 -0.00560695 -0.00778173 -0.00483078 -0.00719729 -0.00827901 -0.0103571 -0.00778173 -0.0100335 -0.0103571 -0.0124813 -0.0100335 -0.0123369 -0.00778173 -0.0100335 -0.00719729 -0.00964845 -0.0100335 -0.0123369 -0.00964845 -0.0121574 0.00486716 0.00328882 0.00667555 0.0049456 0.00328882 0.00150815 0.0049456 0.00299626 0.00667555 0.0049456 0.0087459 0.00684166 0.0049456 0.00299626 0.00684166 0.00469946 0.00150815 -0.000453838 0.00299626 0.000850653 -0.000453838 -0.0025747 0.000850653 -0.0014669 0.00299626 0.000850653 0.00469946 0.00234488 0.000850653 -0.0014669 0.00234488 -0.000195507 0.0087459 0.00684166 0.0111043 0.0090001 0.00684166 0.00469946 0.0090001 0.00663808 0.0111043 0.0090001 0.0137799 0.0114463 0.0090001 0.00663808 0.0114463 0.00883414 0.00469946 0.00234488 0.00663808 0.00404681 0.00234488 -0.000195507 0.00404681 0.00125538 0.00663808 0.00404681 0.00883414 0.0059756 0.00404681 0.00125538 0.0059756 0.0029027 -0.0025747 -0.00483078 -0.0014669 -0.00393098 -0.00483078 -0.00719729 -0.00393098 -0.00651532 -0.0014669 -0.00393098 -0.000195507 -0.00289445 -0.00393098 -0.00651532 -0.00289445 -0.00572411 -0.00719729 -0.00964845 -0.00651532 -0.00919277 -0.00964845 -0.0121574 -0.00919277 -0.0119352 -0.00651532 -0.00919277 -0.00572411 -0.00865607 -0.00919277 -0.0119352 -0.00865607 -0.0116611 -0.000195507 -0.00289445 0.00125538 -0.00170691 -0.00289445 -0.00572411 -0.00170691 -0.00481072 0.00125538 -0.00170691 0.0029027 -0.000353149 -0.00170691 -0.00481072 -0.000353149 -0.00376114 -0.00572411 -0.00865607 -0.00481072 -0.0080265 -0.00865607 -0.0116611 -0.0080265 -0.0113242 -0.00481072 -0.0080265 -0.00376114 -0.0072909 -0.0080265 -0.0113242 -0.0072909 -0.010912 -0.0146026 -0.0163564 -0.0119266 -0.0133327 -0.0163564 -0.0180963 -0.0133327 -0.0147277 -0.0119266 -0.0133327 -0.0131378 -0.0146743 -0.0133327 -0.0147277 -0.0146743 -0.0161986 -0.0180963 -0.0197997 -0.0147277 -0.0160932 -0.0197997 -0.0214439 -0.0160932 -0.0174112 -0.0147277 -0.0160932 -0.0161986 -0.0176909 -0.0160932 -0.0174112 -0.0176909 -0.0191311 -0.0131378 -0.0146743 -0.0128813 -0.0143959 -0.0146743 -0.0161986 -0.0143959 -0.015899 -0.0128813 -0.0143959 -0.0129029 -0.0144489 -0.0143959 -0.015899 -0.0144489 -0.0159836 -0.0161986 -0.0176909 -0.015899 -0.0173708 -0.0176909 -0.0191311 -0.0173708 -0.0187916 -0.015899 -0.0173708 -0.0159836 -0.0174871 -0.0173708 -0.0187916 -0.0174871 -0.018939 -0.0214439 -0.0230068 -0.0174112 -0.0186637 -0.0230068 -0.0244669 -0.0186637 -0.0198334 -0.0174112 -0.0186637 -0.0191311 -0.0204997 -0.0186637 -0.0198334 -0.0204997 -0.0217777 -0.0244669 -0.0258035 -0.0198334 -0.0209037 -0.0258035 -0.0269973 -0.0209037 -0.0218591 -0.0198334 -0.0209037 -0.0217777 -0.022947 -0.0209037 -0.0218591 -0.022947 -0.0239907 -0.0191311 -0.0204997 -0.0187916 -0.0201421 -0.0204997 -0.0217777 -0.0201421 -0.0214033 -0.0187916 -0.0201421 -0.018939 -0.0203195 -0.0201421 -0.0214033 -0.0203195 -0.0216093 -0.0217777 -0.022947 -0.0214033 -0.0225574 -0.022947 -0.0239907 -0.0225574 -0.0235877 -0.0214033 -0.0225574 -0.0216093 -0.02279 -0.0225574 -0.0235877 -0.02279 -0.0238443 -0.0129029 -0.0144489 -0.0128622 -0.0144533 -0.0144489 -0.0159836 -0.0144533 -0.0160337 -0.0128622 -0.0144533 -0.0128197 -0.0144774 -0.0144533 -0.0160337 -0.0144774 -0.0161251 -0.0159836 -0.0174871 -0.0160337 -0.0175827 -0.0174871 -0.018939 -0.0175827 -0.0190794 -0.0160337 -0.0175827 -0.0161251 -0.017741 -0.0175827 -0.0190794 -0.017741 -0.0193036 -0.0128197 -0.0144774 -0.0127622 -0.0145076 -0.0144774 -0.0161251 -0.0145076 -0.0162435 -0.0127622 -0.0145076 -0.0126893 -0.0145442 -0.0145076 -0.0162435 -0.0145442 -0.0163908 -0.0161251 -0.017741 -0.0162435 -0.0179474 -0.017741 -0.0193036 -0.0179474 -0.0195966 -0.0162435 -0.0179474 -0.0163908 -0.0182052 -0.0179474 -0.0195966 -0.0182052 -0.0199631 -0.018939 -0.0203195 -0.0190794 -0.0205034 -0.0203195 -0.0216093 -0.0205034 -0.0218345 -0.0190794 -0.0205034 -0.0193036 -0.0207913 -0.0205034 -0.0218345 -0.0207913 -0.0221832 -0.0216093 -0.02279 -0.0218345 -0.0230537 -0.02279 -0.0238443 -0.0230537 -0.024143 -0.0218345 -0.0230537 -0.0221832 -0.0234589 -0.0230537 -0.024143 -0.0234589 -0.0245995 -0.0193036 -0.0207913 -0.0195966 -0.0211683 -0.0207913 -0.0221832 -0.0211683 -0.0226401 -0.0195966 -0.0211683 -0.0199631 -0.0216404 -0.0211683 -0.0226401 -0.0216404 -0.023213 -0.0221832 -0.0234589 -0.0226401 -0.0239904 -0.0234589 -0.0245995 -0.0239904 -0.0251988 -0.0226401 -0.0239904 -0.023213 -0.0246575 -0.0239904 -0.0251988 -0.0246575 -0.0259518 -0.0269973 -0.0280307 -0.0218591 -0.0226852 -0.0280307 -0.0288863 -0.0226852 -0.0233699 -0.0218591 -0.0226852 -0.0239907 -0.0248931 -0.0226852 -0.0233699 -0.0248931 -0.0256412 -0.0288863 -0.0295517 -0.0233699 -0.0238966 -0.0295517 -0.0299958 -0.0238966 -0.0242836 -0.0233699 -0.0238966 -0.0256412 -0.0262196 -0.0238966 -0.0242836 -0.0262196 -0.0266419 -0.0239907 -0.0248931 -0.0235877 -0.0244786 -0.0248931 -0.0256412 -0.0244786 -0.0252177 -0.0235877 -0.0244786 -0.0238443 -0.0247565 -0.0244786 -0.0252177 -0.0247565 -0.0255135 -0.0256412 -0.0262196 -0.0252177 -0.0257897 -0.0262196 -0.0266419 -0.0257897 -0.0262102 -0.0252177 -0.0257897 -0.0255135 -0.0260998 -0.0257897 -0.0262102 -0.0260998 -0.0265301 -0.0299958 -0.0302749 -0.0242836 -0.0243861 -0.0302749 -0.0302792 -0.0243861 -0.0249356 -0.0242836 -0.0243861 -0.0266419 -0.0267845 -0.0243861 -0.0249356 -0.0267845 -0.027319 -0.0302792 -0.0286341 -0.0249356 -0.0223778 -0.0286341 -0.0312814 -0.0223778 -0.0283669 -0.0249356 -0.0223778 -0.027319 -0.0247872 -0.0223778 -0.0283669 -0.0247872 -0.0296422 -0.0266419 -0.0267845 -0.0262102 -0.0263483 -0.0267845 -0.027319 -0.0263483 -0.026904 -0.0262102 -0.0263483 -0.0265301 -0.026673 -0.0263483 -0.026904 -0.026673 -0.0272225 -0.027319 -0.0247872 -0.026904 -0.0243131 -0.0247872 -0.0296422 -0.0243131 -0.0296206 -0.026904 -0.0243131 -0.0272225 -0.0246022 -0.0243131 -0.0296206 -0.0246022 -0.0297721 -0.0238443 -0.0247565 -0.024143 -0.0250858 -0.0247565 -0.0255135 -0.0250858 -0.0258686 -0.024143 -0.0250858 -0.0245995 -0.0255873 -0.0250858 -0.0258686 -0.0255873 -0.0264077 -0.0255135 -0.0260998 -0.0258686 -0.0264748 -0.0260998 -0.0265301 -0.0264748 -0.0269187 -0.0258686 -0.0264748 -0.0264077 -0.027043 -0.0264748 -0.0269187 -0.027043 -0.027507 -0.0245995 -0.0255873 -0.0251988 -0.0262462 -0.0255873 -0.0264077 -0.0262462 -0.0271165 -0.0251988 -0.0262462 -0.0259518 -0.0270748 -0.0262462 -0.0271165 -0.0270748 -0.0280088 -0.0264077 -0.027043 -0.0271165 -0.0277907 -0.027043 -0.027507 -0.0277907 -0.0282821 -0.0271165 -0.0277907 -0.0280088 -0.0287328 -0.0277907 -0.0282821 -0.0287328 -0.0292599 -0.0265301 -0.026673 -0.0269187 -0.0270652 -0.026673 -0.0272225 -0.0270652 -0.0276187 -0.0269187 -0.0270652 -0.027507 -0.027661 -0.0270652 -0.0276187 -0.027661 -0.0282237 -0.0272225 -0.0246022 -0.0276187 -0.0249437 -0.0246022 -0.0297721 -0.0249437 -0.0302041 -0.0276187 -0.0249437 -0.0282237 -0.025484 -0.0249437 -0.0302041 -0.025484 -0.0308404 -0.027507 -0.027661 -0.0282821 -0.0284474 -0.027661 -0.0282237 -0.0284474 -0.0290259 -0.0282821 -0.0284474 -0.0292599 -0.0294409 -0.0284474 -0.0290259 -0.0294409 -0.030041 -0.0282237 -0.025484 -0.0290259 -0.0262023 -0.025484 -0.0308404 -0.0262023 -0.0316993 -0.0290259 -0.0262023 -0.030041 -0.0271134 -0.0262023 -0.0316993 -0.0271134 -0.0327874 -0.0126893 -0.0145442 -0.012597 -0.0145848 -0.0145442 -0.0163908 -0.0145848 -0.0165656 -0.012597 -0.0145848 -0.0124813 -0.0146264 -0.0145848 -0.0165656 -0.0146264 -0.0167663 -0.0163908 -0.0182052 -0.0165656 -0.018514 -0.0182052 -0.0199631 -0.018514 -0.0204043 -0.0165656 -0.018514 -0.0167663 -0.0188741 -0.018514 -0.0204043 -0.0188741 -0.0209221 -0.0124813 -0.0146264 -0.0123369 -0.0146651 -0.0146264 -0.0167663 -0.0146651 -0.0169907 -0.0123369 -0.0146651 -0.0121574 -0.0146962 -0.0146651 -0.0169907 -0.0146962 -0.0172357 -0.0167663 -0.0188741 -0.0169907 -0.0192849 -0.0188741 -0.0209221 -0.0192849 -0.0215181 -0.0169907 -0.0192849 -0.0172357 -0.0197453 -0.0192849 -0.0215181 -0.0197453 -0.0221933 -0.0199631 -0.0216404 -0.0204043 -0.0222104 -0.0216404 -0.023213 -0.0222104 -0.0239063 -0.0204043 -0.0222104 -0.0209221 -0.0228822 -0.0222104 -0.0239063 -0.0228822 -0.0247261 -0.023213 -0.0246575 -0.0239063 -0.0254666 -0.0246575 -0.0259518 -0.0254666 -0.0268665 -0.0239063 -0.0254666 -0.0247261 -0.0264257 -0.0254666 -0.0268665 -0.0264257 -0.0279535 -0.0209221 -0.0228822 -0.0215181 -0.0236597 -0.0228822 -0.0247261 -0.0236597 -0.0256788 -0.0215181 -0.0236597 -0.0221933 -0.0245466 -0.0236597 -0.0256788 -0.0245466 -0.0267709 -0.0247261 -0.0264257 -0.0256788 -0.027544 -0.0264257 -0.0279535 -0.027544 -0.0292246 -0.0256788 -0.027544 -0.0267709 -0.0288315 -0.027544 -0.0292246 -0.0288315 -0.0306932 -0.0121574 -0.0146962 -0.0119352 -0.0147134 -0.0146962 -0.0172357 -0.0147134 -0.0174966 -0.0119352 -0.0147134 -0.0116611 -0.0147088 -0.0147134 -0.0174966 -0.0147088 -0.0177674 -0.0172357 -0.0197453 -0.0174966 -0.0202527 -0.0197453 -0.0221933 -0.0202527 -0.0229478 -0.0174966 -0.0202527 -0.0177674 -0.0208031 -0.0202527 -0.0229478 -0.0208031 -0.0237799 -0.0116611 -0.0147088 -0.0113242 -0.0146727 -0.0147088 -0.0177674 -0.0146727 -0.0180396 -0.0113242 -0.0146727 -0.010912 -0.0145934 -0.0146727 -0.0180396 -0.0145934 -0.0183023 -0.0177674 -0.0208031 -0.0180396 -0.0213898 -0.0208031 -0.0237799 -0.0213898 -0.0246857 -0.0180396 -0.0213898 -0.0183023 -0.0220034 -0.0213898 -0.0246857 -0.0220034 -0.0256579 -0.0221933 -0.0245466 -0.0229478 -0.0255457 -0.0245466 -0.0267709 -0.0255457 -0.0280091 -0.0229478 -0.0255457 -0.0237799 -0.0266589 -0.0255457 -0.0280091 -0.0266589 -0.0293988 -0.0267709 -0.0288315 -0.0280091 -0.0302985 -0.0288315 -0.0306932 -0.0302985 -0.0323742 -0.0280091 -0.0302985 -0.0293988 -0.0319555 -0.0302985 -0.0323742 -0.0319555 -0.0342832 -0.0237799 -0.0266589 -0.0246857 -0.0278856 -0.0266589 -0.0293988 -0.0278856 -0.0309442 -0.0246857 -0.0278856 -0.0256579 -0.029222 -0.0278856 -0.0309442 -0.029222 -0.0326464 -0.0293988 -0.0319555 -0.0309442 -0.0338121 -0.031