# vtk DataFile Version 3.0
#This file was generated by the deal.II library on 2026/1/5 at 14:19:37
ASCII
DATASET UNSTRUCTURED_GRID

POINTS 4096 double
0 0 0
0.03125 0 0
0 0.03125 0
0.03125 0.03125 0
0.03125 0 0
0.0625 0 0
0.03125 0.03125 0
0.0625 0.03125 0
0 0.03125 0
0.03125 0.03125 0
0 0.0625 0
0.03125 0.0625 0
0.03125 0.03125 0
0.0625 0.03125 0
0.03125 0.0625 0
0.0625 0.0625 0
0.0625 0 0
0.09375 0 0
0.0625 0.03125 0
0.09375 0.03125 0
0.09375 0 0
0.125 0 0
0.09375 0.03125 0
0.125 0.03125 0
0.0625 0.03125 0
0.09375 0.03125 0
0.0625 0.0625 0
0.09375 0.0625 0
0.09375 0.03125 0
0.125 0.03125 0
0.09375 0.0625 0
0.125 0.0625 0
0 0.0625 0
0.03125 0.0625 0
0 0.09375 0
0.03125 0.09375 0
0.03125 0.0625 0
0.0625 0.0625 0
0.03125 0.09375 0
0.0625 0.09375 0
0 0.09375 0
0.03125 0.09375 0
0 0.125 0
0.03125 0.125 0
0.03125 0.09375 0
0.0625 0.09375 0
0.03125 0.125 0
0.0625 0.125 0
0.0625 0.0625 0
0.09375 0.0625 0
0.0625 0.09375 0
0.09375 0.09375 0
0.09375 0.0625 0
0.125 0.0625 0
0.09375 0.09375 0
0.125 0.09375 0
0.0625 0.09375 0
0.09375 0.09375 0
0.0625 0.125 0
0.09375 0.125 0
0.09375 0.09375 0
0.125 0.09375 0
0.09375 0.125 0
0.125 0.125 0
0.125 0 0
0.15625 0 0
0.125 0.03125 0
0.15625 0.03125 0
0.15625 0 0
0.1875 0 0
0.15625 0.03125 0
0.1875 0.03125 0
0.125 0.03125 0
0.15625 0.03125 0
0.125 0.0625 0
0.15625 0.0625 0
0.15625 0.03125 0
0.1875 0.03125 0
0.15625 0.0625 0
0.1875 0.0625 0
0.1875 0 0
0.21875 0 0
0.1875 0.03125 0
0.21875 0.03125 0
0.21875 0 0
0.25 0 0
0.21875 0.03125 0
0.25 0.03125 0
0.1875 0.03125 0
0.21875 0.03125 0
0.1875 0.0625 0
0.21875 0.0625 0
0.21875 0.03125 0
0.25 0.03125 0
0.21875 0.0625 0
0.25 0.0625 0
0.125 0.0625 0
0.15625 0.0625 0
0.125 0.09375 0
0.15625 0.09375 0
0.15625 0.0625 0
0.1875 0.0625 0
0.15625 0.09375 0
0.1875 0.09375 0
0.125 0.09375 0
0.15625 0.09375 0
0.125 0.125 0
0.15625 0.125 0
0.15625 0.09375 0
0.1875 0.09375 0
0.15625 0.125 0
0.1875 0.125 0
0.1875 0.0625 0
0.21875 0.0625 0
0.1875 0.09375 0
0.21875 0.09375 0
0.21875 0.0625 0
0.25 0.0625 0
0.21875 0.09375 0
0.25 0.09375 0
0.1875 0.09375 0
0.21875 0.09375 0
0.1875 0.125 0
0.21875 0.125 0
0.21875 0.09375 0
0.25 0.09375 0
0.21875 0.125 0
0.25 0.125 0
0 0.125 0
0.03125 0.125 0
0 0.15625 0
0.03125 0.15625 0
0.03125 0.125 0
0.0625 0.125 0
0.03125 0.15625 0
0.0625 0.15625 0
0 0.15625 0
0.03125 0.15625 0
0 0.1875 0
0.03125 0.1875 0
0.03125 0.15625 0
0.0625 0.15625 0
0.03125 0.1875 0
0.0625 0.1875 0
0.0625 0.125 0
0.09375 0.125 0
0.0625 0.15625 0
0.09375 0.15625 0
0.09375 0.125 0
0.125 0.125 0
0.09375 0.15625 0
0.125 0.15625 0
0.0625 0.15625 0
0.09375 0.15625 0
0.0625 0.1875 0
0.09375 0.1875 0
0.09375 0.15625 0
0.125 0.15625 0
0.09375 0.1875 0
0.125 0.1875 0
0 0.1875 0
0.03125 0.1875 0
0 0.21875 0
0.03125 0.21875 0
0.03125 0.1875 0
0.0625 0.1875 0
0.03125 0.21875 0
0.0625 0.21875 0
0 0.21875 0
0.03125 0.21875 0
0 0.25 0
0.03125 0.25 0
0.03125 0.21875 0
0.0625 0.21875 0
0.03125 0.25 0
0.0625 0.25 0
0.0625 0.1875 0
0.09375 0.1875 0
0.0625 0.21875 0
0.09375 0.21875 0
0.09375 0.1875 0
0.125 0.1875 0
0.09375 0.21875 0
0.125 0.21875 0
0.0625 0.21875 0
0.09375 0.21875 0
0.0625 0.25 0
0.09375 0.25 0
0.09375 0.21875 0
0.125 0.21875 0
0.09375 0.25 0
0.125 0.25 0
0.125 0.125 0
0.15625 0.125 0
0.125 0.15625 0
0.15625 0.15625 0
0.15625 0.125 0
0.1875 0.125 0
0.15625 0.15625 0
0.1875 0.15625 0
0.125 0.15625 0
0.15625 0.15625 0
0.125 0.1875 0
0.15625 0.1875 0
0.15625 0.15625 0
0.1875 0.15625 0
0.15625 0.1875 0
0.1875 0.1875 0
0.1875 0.125 0
0.21875 0.125 0
0.1875 0.15625 0
0.21875 0.15625 0
0.21875 0.125 0
0.25 0.125 0
0.21875 0.15625 0
0.25 0.15625 0
0.1875 0.15625 0
0.21875 0.15625 0
0.1875 0.1875 0
0.21875 0.1875 0
0.21875 0.15625 0
0.25 0.15625 0
0.21875 0.1875 0
0.25 0.1875 0
0.125 0.1875 0
0.15625 0.1875 0
0.125 0.21875 0
0.15625 0.21875 0
0.15625 0.1875 0
0.1875 0.1875 0
0.15625 0.21875 0
0.1875 0.21875 0
0.125 0.21875 0
0.15625 0.21875 0
0.125 0.25 0
0.15625 0.25 0
0.15625 0.21875 0
0.1875 0.21875 0
0.15625 0.25 0
0.1875 0.25 0
0.1875 0.1875 0
0.21875 0.1875 0
0.1875 0.21875 0
0.21875 0.21875 0
0.21875 0.1875 0
0.25 0.1875 0
0.21875 0.21875 0
0.25 0.21875 0
0.1875 0.21875 0
0.21875 0.21875 0
0.1875 0.25 0
0.21875 0.25 0
0.21875 0.21875 0
0.25 0.21875 0
0.21875 0.25 0
0.25 0.25 0
0.25 0 0
0.28125 0 0
0.25 0.03125 0
0.28125 0.03125 0
0.28125 0 0
0.3125 0 0
0.28125 0.03125 0
0.3125 0.03125 0
0.25 0.03125 0
0.28125 0.03125 0
0.25 0.0625 0
0.28125 0.0625 0
0.28125 0.03125 0
0.3125 0.03125 0
0.28125 0.0625 0
0.3125 0.0625 0
0.3125 0 0
0.34375 0 0
0.3125 0.03125 0
0.34375 0.03125 0
0.34375 0 0
0.375 0 0
0.34375 0.03125 0
0.375 0.03125 0
0.3125 0.03125 0
0.34375 0.03125 0
0.3125 0.0625 0
0.34375 0.0625 0
0.34375 0.03125 0
0.375 0.03125 0
0.34375 0.0625 0
0.375 0.0625 0
0.25 0.0625 0
0.28125 0.0625 0
0.25 0.09375 0
0.28125 0.09375 0
0.28125 0.0625 0
0.3125 0.0625 0
0.28125 0.09375 0
0.3125 0.09375 0
0.25 0.09375 0
0.28125 0.09375 0
0.25 0.125 0
0.28125 0.125 0
0.28125 0.09375 0
0.3125 0.09375 0
0.28125 0.125 0
0.3125 0.125 0
0.3125 0.0625 0
0.34375 0.0625 0
0.3125 0.09375 0
0.34375 0.09375 0
0.34375 0.0625 0
0.375 0.0625 0
0.34375 0.09375 0
0.375 0.09375 0
0.3125 0.09375 0
0.34375 0.09375 0
0.3125 0.125 0
0.34375 0.125 0
0.34375 0.09375 0
0.375 0.09375 0
0.34375 0.125 0
0.375 0.125 0
0.375 0 0
0.40625 0 0
0.375 0.03125 0
0.40625 0.03125 0
0.40625 0 0
0.4375 0 0
0.40625 0.03125 0
0.4375 0.03125 0
0.375 0.03125 0
0.40625 0.03125 0
0.375 0.0625 0
0.40625 0.0625 0
0.40625 0.03125 0
0.4375 0.03125 0
0.40625 0.0625 0
0.4375 0.0625 0
0.4375 0 0
0.46875 0 0
0.4375 0.03125 0
0.46875 0.03125 0
0.46875 0 0
0.5 0 0
0.46875 0.03125 0
0.5 0.03125 0
0.4375 0.03125 0
0.46875 0.03125 0
0.4375 0.0625 0
0.46875 0.0625 0
0.46875 0.03125 0
0.5 0.03125 0
0.46875 0.0625 0
0.5 0.0625 0
0.375 0.0625 0
0.40625 0.0625 0
0.375 0.09375 0
0.40625 0.09375 0
0.40625 0.0625 0
0.4375 0.0625 0
0.40625 0.09375 0
0.4375 0.09375 0
0.375 0.09375 0
0.40625 0.09375 0
0.375 0.125 0
0.40625 0.125 0
0.40625 0.09375 0
0.4375 0.09375 0
0.40625 0.125 0
0.4375 0.125 0
0.4375 0.0625 0
0.46875 0.0625 0
0.4375 0.09375 0
0.46875 0.09375 0
0.46875 0.0625 0
0.5 0.0625 0
0.46875 0.09375 0
0.5 0.09375 0
0.4375 0.09375 0
0.46875 0.09375 0
0.4375 0.125 0
0.46875 0.125 0
0.46875 0.09375 0
0.5 0.09375 0
0.46875 0.125 0
0.5 0.125 0
0.25 0.125 0
0.28125 0.125 0
0.25 0.15625 0
0.28125 0.15625 0
0.28125 0.125 0
0.3125 0.125 0
0.28125 0.15625 0
0.3125 0.15625 0
0.25 0.15625 0
0.28125 0.15625 0
0.25 0.1875 0
0.28125 0.1875 0
0.28125 0.15625 0
0.3125 0.15625 0
0.28125 0.1875 0
0.3125 0.1875 0
0.3125 0.125 0
0.34375 0.125 0
0.3125 0.15625 0
0.34375 0.15625 0
0.34375 0.125 0
0.375 0.125 0
0.34375 0.15625 0
0.375 0.15625 0
0.3125 0.15625 0
0.34375 0.15625 0
0.3125 0.1875 0
0.34375 0.1875 0
0.34375 0.15625 0
0.375 0.15625 0
0.34375 0.1875 0
0.375 0.1875 0
0.25 0.1875 0
0.28125 0.1875 0
0.25 0.21875 0
0.28125 0.21875 0
0.28125 0.1875 0
0.3125 0.1875 0
0.28125 0.21875 0
0.3125 0.21875 0
0.25 0.21875 0
0.28125 0.21875 0
0.25 0.25 0
0.28125 0.25 0
0.28125 0.21875 0
0.3125 0.21875 0
0.28125 0.25 0
0.3125 0.25 0
0.3125 0.1875 0
0.34375 0.1875 0
0.3125 0.21875 0
0.34375 0.21875 0
0.34375 0.1875 0
0.375 0.1875 0
0.34375 0.21875 0
0.375 0.21875 0
0.3125 0.21875 0
0.34375 0.21875 0
0.3125 0.25 0
0.34375 0.25 0
0.34375 0.21875 0
0.375 0.21875 0
0.34375 0.25 0
0.375 0.25 0
0.375 0.125 0
0.40625 0.125 0
0.375 0.15625 0
0.40625 0.15625 0
0.40625 0.125 0
0.4375 0.125 0
0.40625 0.15625 0
0.4375 0.15625 0
0.375 0.15625 0
0.40625 0.15625 0
0.375 0.1875 0
0.40625 0.1875 0
0.40625 0.15625 0
0.4375 0.15625 0
0.40625 0.1875 0
0.4375 0.1875 0
0.4375 0.125 0
0.46875 0.125 0
0.4375 0.15625 0
0.46875 0.15625 0
0.46875 0.125 0
0.5 0.125 0
0.46875 0.15625 0
0.5 0.15625 0
0.4375 0.15625 0
0.46875 0.15625 0
0.4375 0.1875 0
0.46875 0.1875 0
0.46875 0.15625 0
0.5 0.15625 0
0.46875 0.1875 0
0.5 0.1875 0
0.375 0.1875 0
0.40625 0.1875 0
0.375 0.21875 0
0.40625 0.21875 0
0.40625 0.1875 0
0.4375 0.1875 0
0.40625 0.21875 0
0.4375 0.21875 0
0.375 0.21875 0
0.40625 0.21875 0
0.375 0.25 0
0.40625 0.25 0
0.40625 0.21875 0
0.4375 0.21875 0
0.40625 0.25 0
0.4375 0.25 0
0.4375 0.1875 0
0.46875 0.1875 0
0.4375 0.21875 0
0.46875 0.21875 0
0.46875 0.1875 0
0.5 0.1875 0
0.46875 0.21875 0
0.5 0.21875 0
0.4375 0.21875 0
0.46875 0.21875 0
0.4375 0.25 0
0.46875 0.25 0
0.46875 0.21875 0
0.5 0.21875 0
0.46875 0.25 0
0.5 0.25 0
0 0.25 0
0.03125 0.25 0
0 0.28125 0
0.03125 0.28125 0
0.03125 0.25 0
0.0625 0.25 0
0.03125 0.28125 0
0.0625 0.28125 0
0 0.28125 0
0.03125 0.28125 0
0 0.3125 0
0.03125 0.3125 0
0.03125 0.28125 0
0.0625 0.28125 0
0.03125 0.3125 0
0.0625 0.3125 0
0.0625 0.25 0
0.09375 0.25 0
0.0625 0.28125 0
0.09375 0.28125 0
0.09375 0.25 0
0.125 0.25 0
0.09375 0.28125 0
0.125 0.28125 0
0.0625 0.28125 0
0.09375 0.28125 0
0.0625 0.3125 0
0.09375 0.3125 0
0.09375 0.28125 0
0.125 0.28125 0
0.09375 0.3125 0
0.125 0.3125 0
0 0.3125 0
0.03125 0.3125 0
0 0.34375 0
0.03125 0.34375 0
0.03125 0.3125 0
0.0625 0.3125 0
0.03125 0.34375 0
0.0625 0.34375 0
0 0.34375 0
0.03125 0.34375 0
0 0.375 0
0.03125 0.375 0
0.03125 0.34375 0
0.0625 0.34375 0
0.03125 0.375 0
0.0625 0.375 0
0.0625 0.3125 0
0.09375 0.3125 0
0.0625 0.34375 0
0.09375 0.34375 0
0.09375 0.3125 0
0.125 0.3125 0
0.09375 0.34375 0
0.125 0.34375 0
0.0625 0.34375 0
0.09375 0.34375 0
0.0625 0.375 0
0.09375 0.375 0
0.09375 0.34375 0
0.125 0.34375 0
0.09375 0.375 0
0.125 0.375 0
0.125 0.25 0
0.15625 0.25 0
0.125 0.28125 0
0.15625 0.28125 0
0.15625 0.25 0
0.1875 0.25 0
0.15625 0.28125 0
0.1875 0.28125 0
0.125 0.28125 0
0.15625 0.28125 0
0.125 0.3125 0
0.15625 0.3125 0
0.15625 0.28125 0
0.1875 0.28125 0
0.15625 0.3125 0
0.1875 0.3125 0
0.1875 0.25 0
0.21875 0.25 0
0.1875 0.28125 0
0.21875 0.28125 0
0.21875 0.25 0
0.25 0.25 0
0.21875 0.28125 0
0.25 0.28125 0
0.1875 0.28125 0
0.21875 0.28125 0
0.1875 0.3125 0
0.21875 0.3125 0
0.21875 0.28125 0
0.25 0.28125 0
0.21875 0.3125 0
0.25 0.3125 0
0.125 0.3125 0
0.15625 0.3125 0
0.125 0.34375 0
0.15625 0.34375 0
0.15625 0.3125 0
0.1875 0.3125 0
0.15625 0.34375 0
0.1875 0.34375 0
0.125 0.34375 0
[...]
POINT_DATA 4096
SCALARS p double 1
LOOKUP_TABLE default
-5.46341e-06 7.38082e-05 -8.89504e-05 -9.01641e-06 7.38082e-05 0.000317217 -9.01641e-06 0.000124374 -8.89504e-05 -9.01641e-06 -0.000338175 -0.000144864 -9.01641e-06 0.000124374 -0.000144864 -8.2045e-06 0.000317217 0.000586442 0.000124374 0.000273387 0.000586442 0.000784978 0.000273387 0.00037795 0.000124374 0.000273387 -8.2045e-06 0.000132046 0.000273387 0.00037795 0.000132046 0.000214933 -0.000338175 -0.000144864 -0.000620085 -0.000298542 -0.000144864 -8.2045e-06 -0.000298542 -0.000144476 -0.000620085 -0.000298542 -0.000840128 -0.000407234 -0.000298542 -0.000144476 -0.000407234 -0.00021876 -8.2045e-06 0.000132046 -0.000144476 8.05625e-07 0.000132046 0.000214933 8.05625e-07 7.16049e-05 -0.000144476 8.05625e-07 -0.00021876 -4.90543e-05 8.05625e-07 7.16049e-05 -4.90543e-05 2.78425e-05 0.000784978 0.000865994 0.00037795 0.00040704 0.000865994 0.000811814 0.00040704 0.000344172 0.00037795 0.00040704 0.000214933 0.000222355 0.00040704 0.000344172 0.000222355 0.000139144 0.000811814 0.000619155 0.000344172 0.000183342 0.000619155 0.000292125 0.000183342 -7.55075e-05 0.000344172 0.000183342 0.000139144 -4.10719e-05 0.000183342 -7.55075e-05 -4.10719e-05 -0.000319663 0.000214933 0.000222355 7.16049e-05 6.7083e-05 0.000222355 0.000139144 6.7083e-05 -2.25986e-05 7.16049e-05 6.7083e-05 2.78425e-05 2.32504e-05 6.7083e-05 -2.25986e-05 2.32504e-05 -6.79596e-05 0.000139144 -4.10719e-05 -2.25986e-05 -0.000201263 -4.10719e-05 -0.000319663 -0.000201263 -0.000470013 -2.25986e-05 -0.000201263 -6.79596e-05 -0.000246636 -0.000201263 -0.000470013 -0.000246636 -0.000512766 -0.000840128 -0.000407234 -0.000948862 -0.00043706 -0.000407234 -0.00021876 -0.00043706 -0.000207933 -0.000948862 -0.00043706 -0.000921186 -0.000364993 -0.00043706 -0.000207933 -0.000364993 -8.87259e-05 -0.00021876 -4.90543e-05 -0.000207933 -1.03303e-05 -4.90543e-05 2.78425e-05 -1.03303e-05 8.00736e-05 -0.000207933 -1.03303e-05 -8.87259e-05 0.000135872 -1.03303e-05 8.00736e-05 0.000135872 0.000243437 -0.000921186 -0.000364993 -0.000742874 -0.000175911 -0.000364993 -8.87259e-05 -0.000175911 0.000155801 -0.000742874 -0.000175911 -0.000404489 0.000141486 -0.000175911 0.000155801 0.000141486 0.000539707 -8.87259e-05 0.000135872 0.000155801 0.00040445 0.000135872 0.000243437 0.00040445 0.000530469 0.000155801 0.00040445 0.000539707 0.000809286 0.00040445 0.000530469 0.000809286 0.000954193 2.78425e-05 2.32504e-05 8.00736e-05 8.17132e-05 2.32504e-05 -6.79596e-05 8.17132e-05 -6.65836e-06 8.00736e-05 8.17132e-05 0.000243437 0.000254532 8.17132e-05 -6.65836e-06 0.000254532 0.000170979 -6.79596e-05 -0.000246636 -6.65836e-06 -0.000183297 -0.000246636 -0.000512766 -0.000183297 -0.00044692 -6.65836e-06 -0.000183297 0.000170979 -3.52041e-06 -0.000183297 -0.00044692 -3.52041e-06 -0.00026654 0.000243437 0.000254532 0.000530469 0.000552038 0.000254532 0.000170979 0.000552038 0.000473723 0.000530469 0.000552038 0.000954193 0.000986079 0.000552038 0.000473723 0.000986079 0.00091238 0.000170979 -3.52041e-06 0.000473723 0.00030057 -3.52041e-06 -0.00026654 0.00030057 3.59176e-05 0.000473723 0.00030057 0.00091238 0.000739018 0.00030057 3.59176e-05 0.000739018 0.00047002 0.000292125 -0.000161686 -7.55075e-05 -0.000429008 -0.000161686 -0.000733135 -0.000429008 -0.000871807 -7.55075e-05 -0.000429008 -0.000319663 -0.000694578 -0.000429008 -0.000871807 -0.000694578 -0.0011615 -0.000733135 -0.0014123 -0.000871807 -0.00139726 -0.0014123 -0.0021886 -0.00139726 -0.00199766 -0.000871807 -0.00139726 -0.0011615 -0.00171445 -0.00139726 -0.00199766 -0.00171445 -0.00234594 -0.000319663 -0.000694578 -0.000470013 -0.000827513 -0.000694578 -0.0011615 -0.000827513 -0.00127054 -0.000470013 -0.000827513 -0.000512766 -0.000864909 -0.000827513 -0.00127054 -0.000864909 -0.00130029 -0.0011615 -0.00171445 -0.00127054 -0.00179431 -0.00171445 -0.00234594 -0.00179431 -0.00239246 -0.00127054 -0.00179431 -0.00130029 -0.0018148 -0.00179431 -0.00239246 -0.0018148 -0.00240286 -0.0021886 -0.00305056 -0.00199766 -0.00266426 -0.00305056 -0.00398542 -0.00266426 -0.00338706 -0.00199766 -0.00266426 -0.00234594 -0.00304716 -0.00266426 -0.00338706 -0.00304716 -0.00380773 -0.00398542 -0.00497881 -0.00338706 -0.00415472 -0.00497881 -0.00601442 -0.00415472 -0.00495434 -0.00338706 -0.00415472 -0.00380773 -0.00461572 -0.00415472 -0.00495434 -0.00461572 -0.00545745 -0.00234594 -0.00304716 -0.00239246 -0.00305717 -0.00304716 -0.00380773 -0.00305717 -0.003779 -0.00239246 -0.00305717 -0.00240286 -0.0030574 -0.00305717 -0.003779 -0.0030574 -0.0037696 -0.00380773 -0.00461572 -0.003779 -0.00454686 -0.00461572 -0.00545745 -0.00454686 -0.00534786 -0.003779 -0.00454686 -0.0037696 -0.00452891 -0.00454686 -0.00534786 -0.00452891 -0.00532284 -0.000512766 -0.000864909 -0.00044692 -0.000795674 -0.000864909 -0.00130029 -0.000795674 -0.00122696 -0.00044692 -0.000795674 -0.00026654 -0.000615775 -0.000795674 -0.00122696 -0.000615775 -0.00104871 -0.00130029 -0.0018148 -0.00122696 -0.00173719 -0.0018148 -0.00240286 -0.00173719 -0.00232148 -0.00122696 -0.00173719 -0.00104871 -0.00156215 -0.00173719 -0.00232148 -0.00156215 -0.00215177 -0.00026654 -0.000615775 3.59176e-05 -0.000317597 -0.000615775 -0.00104871 -0.000317597 -0.000757556 3.59176e-05 -0.000317597 0.00047002 0.000108216 -0.000317597 -0.000757556 0.000108216 -0.000344134 -0.00104871 -0.00156215 -0.000757556 -0.00128113 -0.00156215 -0.00215177 -0.00128113 -0.00188453 -0.000757556 -0.00128113 -0.000344134 -0.000884606 -0.00128113 -0.00188453 -0.000884606 -0.00151003 -0.00240286 -0.0030574 -0.00232148 -0.0029734 -0.0030574 -0.0037696 -0.0029734 -0.00368476 -0.00232148 -0.0029734 -0.00215177 -0.00281179 -0.0029734 -0.00368476 -0.00281179 -0.00353458 -0.0037696 -0.00452891 -0.00368476 -0.00444555 -0.00452891 -0.00532284 -0.00444555 -0.0052436 -0.00368476 -0.00444555 -0.00353458 -0.00431054 -0.00444555 -0.0052436 -0.00431054 -0.00512774 -0.00215177 -0.00281179 -0.00188453 -0.00256258 -0.00281179 -0.00353458 -0.00256258 -0.00330825 -0.00188453 -0.00256258 -0.00151003 -0.00221585 -0.00256258 -0.00330825 -0.00221585 -0.00299565 -0.00353458 -0.00431054 -0.00330825 -0.0041123 -0.00431054 -0.00512774 -0.0041123 -0.004963 -0.00330825 -0.0041123 -0.00299565 -0.00384066 -0.0041123 -0.004963 -0.00384066 -0.00473932 -0.000404489 0.000141486 0.000102169 0.000596979 0.000141486 0.000539707 0.000596979 0.00107561 0.000102169 0.000596979 0.000786084 0.00120049 0.000596979 0.00107561 0.00120049 0.0017762 0.000539707 0.000809286 0.00107561 0.00136351 0.000809286 0.000954193 0.00136351 0.00152764 0.00107561 0.00136351 0.0017762 0.00208062 0.00136351 0.00152764 0.00208062 0.0022647 0.000786084 0.00120049 0.00165825 0.0019631 0.00120049 0.0017762 0.0019631 0.00265525 0.00165825 0.0019631 0.00273239 0.00289788 0.0019631 0.00265525 0.00289788 0.00372858 0.0017762 0.00208062 0.00265525 0.00297524 0.00208062 0.0022647 0.00297524 0.00318054 0.00265525 0.00297524 0.00372858 0.00406392 0.00297524 0.00318054 0.00406392 0.00429237 0.000954193 0.000986079 0.00152764 0.00156924 0.000986079 0.00091238 0.00156924 0.00149905 0.00152764 0.00156924 0.0022647 0.00231541 0.00156924 0.00149905 0.00231541 0.00224752 0.00091238 0.000739018 0.00149905 0.00132355 0.000739018 0.00047002 0.00132355 0.00104734 0.00149905 0.00132355 0.00224752 0.00206792 0.00132355 0.00104734 0.00206792 0.0017818 0.0022647 0.00231541 0.00318054 0.00324004 0.00231541 0.00224752 0.00324004 0.00317345 0.00318054 0.00324004 0.00429237 0.0043607 0.00324004 0.00317345 0.0043607 0.00429478 0.00224752 0.00206792 0.00317345 0.00298811 0.00206792 0.0017818 0.00298811 0.00268985 0.00317345 0.00298811 0.00429478 0.00410255 0.00298811 0.00268985 0.00410255 0.00379066 0.00273239 0.00289788 0.00402547 0.00402042 0.00289788 0.00372858 0.00402042 0.00501467 0.00402547 0.00402042 0.00555807 0.00534943 0.00402042 0.00501467 0.00534943 0.00653545 0.00372858 0.00406392 0.00501467 0.00536579 0.00406392 0.00429237 0.00536579 0.00561992 0.00501467 0.00536579 0.00653545 0.00690332 0.00536579 0.00561992 0.00690332 0.00718616 0.00555807 0.00534943 0.00735503 0.0069074 0.00534943 0.00653545 0.0069074 0.00831715 0.00735503 0.0069074 0.00944631 0.00872158 0.0069074 0.00831715 0.00872158 0.0103915 0.00653545 0.00690332 0.00831715 0.00870305 0.00690332 0.00718616 0.00870305 0.00901785 0.00831715 0.00870305 0.0103915 0.0107967 0.00870305 0.00901785 0.0107967 0.0111465 0.00429237 0.0043607 0.00561992 0.00569753 0.0043607 0.00429478 0.00569753 0.00563208 0.00561992 0.00569753 0.00718616 0.00727374 0.00569753 0.00563208 0.00727374 0.00720883 0.00429478 0.00410255 0.00563208 0.0054324 0.00410255 0.00379066 0.0054324 0.00510626 0.00563208 0.0054324 0.00720883 0.00700166 0.0054324 0.00510626 0.00700166 0.00666153 0.00718616 0.00727374 0.00901785 0.00911602 0.00727374 0.00720883 0.00911602 0.00905174 0.00901785 0.00911602 0.0111465 0.0112552 0.00911602 0.00905174 0.0112552 0.011191 0.00720883 0.00700166 0.00905174 0.00883727 0.00700166 0.00666153 0.00883727 0.00848408 0.00905174 0.00883727 0.011191 0.010969 0.00883727 0.00848408 0.010969 0.0106038 0.00047002 0.000108216 0.00104734 0.000673326 0.000108216 -0.000344134 0.000673326 0.000203539 0.00104734 0.000673326 0.0017818 0.00139206 0.000673326 0.000203539 0.00139206 0.000900406 -0.000344134 -0.000884606 0.000203539 -0.000360111 -0.000884606 -0.00151003 -0.000360111 -0.00101518 0.000203539 -0.000360111 0.000900406 0.000308075 -0.000360111 -0.00101518 0.000308075 -0.000383393 0.0017818 0.00139206 0.00268985 0.00228161 0.00139206 0.000900406 0.00228161 0.0017646 0.00268985 0.00228161 0.00379066 0.00336208 0.00228161 0.0017646 0.00336208 0.00281753 0.000900406 0.000308075 0.0017646 0.00113925 0.000308075 -0.000383393 0.00113925 0.000405985 0.0017646 0.00113925 0.00281753 0.00215642 0.00113925 0.000405985 0.00215642 0.00137782 -0.00151003 -0.00221585 -0.00101518 -0.00175791 -0.00221585 -0.00299565 -0.00175791 -0.00258261 -0.00101518 -0.00175791 -0.000383393 -0.00117121 -0.00175791 -0.00258261 -0.00117121 -0.00205066 -0.00299565 -0.00384066 -0.00258261 -0.00348106 -0.00384066 -0.00473932 -0.00348106 -0.00444203 -0.00258261 -0.00348106 -0.00205066 -0.00301436 -0.00348106 -0.00444203 -0.00301436 -0.00405162 -0.000383393 -0.00117121 0.000405985 -0.000433667 -0.00117121 -0.00205066 -0.000433667 -0.00137633 0.000405985 -0.000433667 0.00137782 0.000481627 -0.000433667 -0.00137633 0.000481627 -0.000530578 -0.00205066 -0.00301436 -0.00137633 -0.00241585 -0.00301436 -0.00405162 -0.00241585 -0.00354248 -0.00137633 -0.00241585 -0.000530578 -0.00165443 -0.00241585 -0.00354248 -0.00165443 -0.00288177 0.00379066 0.00336208 0.00510626 0.00465676 0.00336208 0.00281753 0.00465676 0.00408408 0.00510626 0.00465676 0.00666153 0.00619184 0.00465676 0.00408408 0.00619184 0.00559228 0.00281753 0.00215642 0.00408408 0.00338649 0.00215642 0.00137782 0.00338649 0.00256141 0.00408408 0.00338649 0.00559228 0.00485983 0.00338649 0.00256141 0.00485983 0.00399005 0.00666153 0.00619184 0.00848408 0.00799616 0.00619184 0.00559228 0.00799616 0.00737278 0.00848408 0.00799616 0.0106038 0.0101004 0.00799616 0.00737278 0.0101004 0.00945777 0.00559228 0.00485983 0.00737278 0.00660964 0.00485983 0.00399005 0.00660964 0.00570025 0.00737278 0.00660964 0.00945777 0.00867052 0.00660964 0.00570025 0.00867052 0.00773006 0.00137782 0.000481627 0.00256141 0.00160669 0.000481627 -0.000530578 0.00160669 0.000521585 0.00256141 0.00160669 0.00399005 0.00297832 0.00160669 0.000521585 0.00297832 0.00182097 -0.000530578 -0.00165443 0.000521585 -0.000692033 -0.00165443 -0.00288177 -0.000692033 -0.00202845 0.000521585 -0.000692033 0.00182097 0.00051659 -0.000692033 -0.00202845 0.00051659 -0.000932641 0.00399005 0.00297832 0.00570025 0.00463723 0.00297832 0.00182097 0.00463723 0.00341341 0.00570025 0.00463723 0.00773006 0.00662609 0.00463723 0.00341341 0.00662609 0.00534762 0.00182097 0.00051659 0.00341341 0.00202326 0.00051659 -0.000932641 0.00202326 0.000464204 0.00341341 0.00202326 0.00534762 0.00388423 0.00202326 0.000464204 0.00388423 0.00222743 -0.00601442 -0.0070739 -0.00495434 -0.00577147 -0.0070739 -0.00813681 -0.00577147 -0.00659014 -0.00495434 -0.00577147 -0.00545745 -0.0063176 -0.00577147 -0.00659014 -0.0063176 -0.0071792 -0.00813681 -0.00918078 -0.00659014 -0.00739302 -0.00918078 -0.0101819 -0.00739302 -0.00816174 -0.00659014 -0.00739302 -0.0071792 -0.00802395 -0.00739302 -0.00816174 -0.00802395 -0.00883255 -0.00545745 -0.0063176 -0.00534786 -0.00616741 -0.0063176 -0.0071792 -0.00616741 -0.00698929 -0.00534786 -0.00616741 -0.00532284 -0.00613703 -0.00616741 -0.00698929 -0.00613703 -0.0069554 -0.0071792 -0.00802395 -0.00698929 -0.00779596 -0.00802395 -0.00883255 -0.00779596 -0.00856889 -0.00698929 -0.00779596 -0.0069554 -0.00776038 -0.00779596 -0.00856889 -0.00776038 -0.00853326 -0.0101819 -0.0111152 -0.00816174 -0.00887744 -0.0111152 -0.0119555 -0.00887744 -0.00952141 -0.00816174 -0.00887744 -0.00883255 -0.00958534 -0.00887744 -0.00952141 -0.00958534 -0.010263 -0.0119555 -0.0126784 -0.00952141 -0.010076 -0.0126784 -0.0132614 -0.010076 -0.0105258 -0.00952141 -0.010076 -0.010263 -0.0108478 -0.010076 -0.0105258 -0.0108478 -0.0113243 -0.00883255 -0.00958534 -0.00856889 -0.00928923 -0.00958534 -0.010263 -0.00928923 -0.0099386 -0.00856889 -0.00928923 -0.00853326 -0.00925492 -0.00928923 -0.0099386 -0.00925492 -0.00990665 -0.010263 -0.0108478 -0.0099386 -0.0105001 -0.0108478 -0.0113243 -0.0105001 -0.0109594 -0.0099386 -0.0105001 -0.00990665 -0.0104712 -0.0105001 -0.0109594 -0.0104712 -0.0109338 -0.00532284 -0.00613703 -0.0052436 -0.0060647 -0.00613703 -0.0069554 -0.0060647 -0.0068927 -0.0052436 -0.0060647 -0.00512774 -0.00597197 -0.0060647 -0.0068927 -0.00597197 -0.0068267 -0.0069554 -0.00776038 -0.0068927 -0.00770968 -0.00776038 -0.00853326 -0.00770968 -0.00849631 -0.0068927 -0.00770968 -0.0068267 -0.00767328 -0.00770968 -0.00849631 -0.00767328 -0.00849134 -0.00512774 -0.00597197 -0.004963 -0.00584599 -0.00597197 -0.0068267 -0.00584599 -0.00674413 -0.004963 -0.00584599 -0.00473932 -0.00567708 -0.00584599 -0.00674413 -0.00567708 -0.00663604 -0.0068267 -0.00767328 -0.00674413 -0.00763775 -0.00767328 -0.00849134 -0.00763775 -0.00850495 -0.00674413 -0.00763775 -0.00663604 -0.00759519 -0.00763775 -0.00850495 -0.00759519 -0.00853061 -0.00853326 -0.00925492 -0.00849631 -0.00923271 -0.00925492 -0.00990665 -0.00923271 -0.00989917 -0.00849631 -0.00923271 -0.00849134 -0.00925956 -0.00923271 -0.00989917 -0.00925956 -0.00995653 -0.00990665 -0.0104712 -0.00989917 -0.0104773 -0.0104712 -0.0109338 -0.0104773 -0.0109513 -0.00989917 -0.0104773 -0.00995653 -0.010562 -0.0104773 -0.0109513 -0.010562 -0.0110581 -0.00849134 -0.00925956 -0.00850495 -0.00932236 -0.00925956 -0.00995653 -0.00932236 -0.0100661 -0.00850495 -0.00932236 -0.00853061 -0.00941627 -0.00932236 -0.0100661 -0.00941627 -0.0102251 -0.00995653 -0.010562 -0.0100661 -0.0107133 -0.010562 -0.0110581 -0.0107133 -0.0112435 -0.0100661 -0.0107133 -0.0102251 -0.0109307 -0.0107133 -0.0112435 -0.0109307 -0.011509 -0.0132614 -0.0136862 -0.0105258 -0.0108587 -0.0136862 -0.0139401 -0.0108587 -0.0110683 -0.0105258 -0.0108587 -0.0113243 -0.0116814 -0.0108587 -0.0110683 -0.0116814 -0.0119137 -0.0139401 -0.0140208 -0.0110683 -0.0111532 -0.0140208 -0.0139317 -0.0111532 -0.0111348 -0.0110683 -0.0111532 -0.0119137 -0.0120216 -0.0111532 -0.0111348 -0.0120216 -0.0120244 -0.0113243 -0.0116814 -0.0109594 -0.0113063 -0.0116814 -0.0119137 -0.0113063 -0.0115358 -0.0109594 -0.0113063 -0.0109338 -0.0112838 -0.0113063 -0.0115358 -0.0112838 -0.0115156 -0.0119137 -0.0120216 -0.0115358 -0.0116479 -0.0120216 -0.0120244 -0.0116479 -0.0116602 -0.0115358 -0.0116479 -0.0115156 -0.0116281 -0.0116479 -0.0116602 -0.0116281 -0.0116362 -0.0139317 -0.013732 -0.0111348 -0.0109787 -0.013732 -0.0134339 -0.0109787 -0.0110281 -0.0111348 -0.0109787 -0.0120244 -0.011895 -0.0109787 -0.0110281 -0.011895 -0.0119387 -0.0134339 -0.0125425 -0.0110281 -0.00981534 -0.0125425 -0.0136512 -0.00981534 -0.0123728 -0.0110281 -0.00981534 -0.0119387 -0.0107361 -0.00981534 -0.0123728 -0.0107361 -0.0127363 -0.0120244 -0.011895 -0.0116602 -0.011538 -0.011895 -0.0119387 -0.011538 -0.0115835 -0.0116602 -0.011538 -0.0116362 -0.0115028 -0.011538 -0.0115835 -0.0115028 -0.0115155 -0.0119387 -0.0107361 -0.0115835 -0.0103486 -0.0107361 -0.0127363 -0.0103486 -0.0124295 -0.0115835 -0.0103486 -0.0115155 -0.0102496 -0.0103486 -0.0124295 -0.0102496 -0.0121505 -0.0109338 -0.0112838 -0.0109513 -0.0113091 -0.0112838 -0.0115156 -0.0113091 -0.0115442 -0.0109513 -0.0113091 -0.0110581 -0.0114312 -0.0113091 -0.0115442 -0.0114312 -0.0116731 -0.0115156 -0.0116281 -0.0115442 -0.0116538 -0.0116281 -0.0116362 -0.0116538 -0.011651 -0.0115442 -0.0116538 -0.0116731 -0.0117796 -0.0116538 -0.011651 -0.0117796 -0.0117627 -0.0110581 -0.0114312 -0.0112435 -0.0116406 -0.0114312 -0.0116731 -0.0116406 -0.0118943 -0.0112435 -0.0116406 -0.011509 -0.0119406 -0.0116406 -0.0118943 -0.0119406 -0.0122131 -0.0116731 -0.0117796 -0.0118943 -0.0119992 -0.0117796 -0.0117627 -0.0119992 -0.0119672 -0.0118943 -0.0119992 -0.0122131 -0.0123197 -0.0119992 -0.0119672 -0.0123197 -0.0122725 -0.0116362 -0.0115028 -0.011651 -0.0114965 -0.0115028 -0.0115155 -0.0114965 -0.0114727 -0.011651 -0.0114965 -0.0117627 -0.0115823 -0.0114965 -0.0114727 -0.0115823 -0.0115201 -0.0115155 -0.0102496 -0.0114727 -0.0101642 -0.0102496 -0.0121505 -0.0101642 -0.0119889 -0.0114727 -0.0101642 -0.0115201 -0.0101655 -0.0101642 -0.0119889 -0.0101655 -0.0119276 -0.0117627 -0.0115823 -0.0119672 -0.0117582 -0.0115823 -0.0115201 -0.0117582 -0.0116575 -0.0119672 -0.0117582 -0.0122725 -0.0120325 -0.0117582 -0.0116575 -0.0120325 -0.0118924 -0.0115201 -0.0101655 -0.0116575 -0.0102488 -0.0101655 -0.0119276 -0.0102488 -0.0119745 -0.0116575 -0.0102488 -0.0118924 -0.0104188 -0.0102488 -0.0119745 -0.0104188 -0.0121256 -0.00473932 -0.00567708 -0.00444203 -0.0054508 -0.00567708 -0.00663604 -0.0054508 -0.00648867 -0.00444203 -0.0054508 -0.00405162 -0.00514773 -0.0054508 -0.00648867 -0.00514773 -0.00628331 -0.00663604 -0.00759519 -0.00648867 -0.00753304 -0.00759519 -0.00853061 -0.00753304 -0.00855756 -0.00648867 -0.00753304 -0.00628331 -0.00743405 -0.00753304 -0.00855756 -0.00743405 -0.00857086 -0.00405162 -0.00514773 -0.00354248 -0.00474193 -0.00514773 -0.00628331 -0.00474193 -0.00599441 -0.00354248 -0.00474193 -0.00288177 -0.00419936 -0.00474193 -0.00599441 -0.00419936 -0.00558769 -0.00628331 -0.00743405 -0.00599441 -0.00727411 -0.00743405 -0.00857086 -0.00727411 -0.00854893 -0.00599441 -0.00727411 -0.00558769 -0.00701985 -0.00727411 -0.00854893 -0.00701985 -0.00846089 -0.00853061 -0.00941627 -0.00855756 -0.0095329 -0.00941627 -0.0102251 -0.0095329 -0.0104279 -0.00855756 -0.0095329 -0.00857086 -0.0096604 -0.0095329 -0.0104279 -0.0096604 -0.0106664 -0.0102251 -0.0109307 -0.0104279 -0.0112114 -0.0109307 -0.011509 -0.0112114 -0.0118548 -0.0104279 -0.0112114 -0.0106664 -0.0115517 -0.0112114 -0.0118548 -0.0115517 -0.0122815 -0.00857086 -0.0096604 -0.00854893 -0.00978091 -0.0096604 -0.0106664 -0.00978091 -0.0109275 -0.00854893 -0.00978091 -0.00846089 -0.00986777 -0.00978091 -0.0109275 -0.00986777 -0.0111906 -0.0106664 -0.0115517 -0.0109275 -0.0119441 -0.0115517 -0.0122815 -0.0119441 -0.0127876 -0.0109275 -0.0119441 -0.0111906 -0.0123751 -0.0119441 -0.0127876 -0.0123751 -0.0133677 -0.00288177 -0.00419936 -0.00202845 -0.00347652 -0.00419936 -0.00558769 -0.00347652 -0.00501802 -0.00202845 -0.00347652 -0.000932641 -0.00251902 -0.00347652 -0.00501802 -0.00251902 -0.00422726 -0.00558769 -0.00701985 -0.00501802 -0.00662596 -0.00701985 -0.00846089 -0.00662596 -0.00826316 -0.00501802 -0.00662596 -0.00422726 -0.00603194 -0.00662596 -0.00826316 -0.00603194 -0.00789518 -0.000932641 -0.00251902 0.000464204 -0.0012612 -0.00251902 -0.00422726 -0.0012612 -0.00314278 0.000464204 -0.0012612 0.00222743 0.000372715 -0.0012612 -0.00314278 0.000372715 -0.00167757 -0.00422726 -0.00603194 -0.00314278 -0.00515933 -0.00603194 -0.00789518 -0.00515933 -0.00727503 -0.00314278 -0.00515933 -0.00167757 -0.00391006 -0.00