# vtk DataFile Version 3.0
#This file was generated by the deal.II library on 2026/1/5 at 14:19:30
ASCII
DATASET UNSTRUCTURED_GRID

POINTS 4096 double
0 0 0
0.03125 0 0
0 0.03125 0
0.03125 0.03125 0
0.03125 0 0
0.0625 0 0
0.03125 0.03125 0
0.0625 0.03125 0
0 0.03125 0
0.03125 0.03125 0
0 0.0625 0
0.03125 0.0625 0
0.03125 0.03125 0
0.0625 0.03125 0
0.03125 0.0625 0
0.0625 0.0625 0
0.0625 0 0
0.09375 0 0
0.0625 0.03125 0
0.09375 0.03125 0
0.09375 0 0
0.125 0 0
0.09375 0.03125 0
0.125 0.03125 0
0.0625 0.03125 0
0.09375 0.03125 0
0.0625 0.0625 0
0.09375 0.0625 0
0.09375 0.03125 0
0.125 0.03125 0
0.09375 0.0625 0
0.125 0.0625 0
0 0.0625 0
0.03125 0.0625 0
0 0.09375 0
0.03125 0.09375 0
0.03125 0.0625 0
0.0625 0.0625 0
0.03125 0.09375 0
0.0625 0.09375 0
0 0.09375 0
0.03125 0.09375 0
0 0.125 0
0.03125 0.125 0
0.03125 0.09375 0
0.0625 0.09375 0
0.03125 0.125 0
0.0625 0.125 0
0.0625 0.0625 0
0.09375 0.0625 0
0.0625 0.09375 0
0.09375 0.09375 0
0.09375 0.0625 0
0.125 0.0625 0
0.09375 0.09375 0
0.125 0.09375 0
0.0625 0.09375 0
0.09375 0.09375 0
0.0625 0.125 0
0.09375 0.125 0
0.09375 0.09375 0
0.125 0.09375 0
0.09375 0.125 0
0.125 0.125 0
0.125 0 0
0.15625 0 0
0.125 0.03125 0
0.15625 0.03125 0
0.15625 0 0
0.1875 0 0
0.15625 0.03125 0
0.1875 0.03125 0
0.125 0.03125 0
0.15625 0.03125 0
0.125 0.0625 0
0.15625 0.0625 0
0.15625 0.03125 0
0.1875 0.03125 0
0.15625 0.0625 0
0.1875 0.0625 0
0.1875 0 0
0.21875 0 0
0.1875 0.03125 0
0.21875 0.03125 0
0.21875 0 0
0.25 0 0
0.21875 0.03125 0
0.25 0.03125 0
0.1875 0.03125 0
0.21875 0.03125 0
0.1875 0.0625 0
0.21875 0.0625 0
0.21875 0.03125 0
0.25 0.03125 0
0.21875 0.0625 0
0.25 0.0625 0
0.125 0.0625 0
0.15625 0.0625 0
0.125 0.09375 0
0.15625 0.09375 0
0.15625 0.0625 0
0.1875 0.0625 0
0.15625 0.09375 0
0.1875 0.09375 0
0.125 0.09375 0
0.15625 0.09375 0
0.125 0.125 0
0.15625 0.125 0
0.15625 0.09375 0
0.1875 0.09375 0
0.15625 0.125 0
0.1875 0.125 0
0.1875 0.0625 0
0.21875 0.0625 0
0.1875 0.09375 0
0.21875 0.09375 0
0.21875 0.0625 0
0.25 0.0625 0
0.21875 0.09375 0
0.25 0.09375 0
0.1875 0.09375 0
0.21875 0.09375 0
0.1875 0.125 0
0.21875 0.125 0
0.21875 0.09375 0
0.25 0.09375 0
0.21875 0.125 0
0.25 0.125 0
0 0.125 0
0.03125 0.125 0
0 0.15625 0
0.03125 0.15625 0
0.03125 0.125 0
0.0625 0.125 0
0.03125 0.15625 0
0.0625 0.15625 0
0 0.15625 0
0.03125 0.15625 0
0 0.1875 0
0.03125 0.1875 0
0.03125 0.15625 0
0.0625 0.15625 0
0.03125 0.1875 0
0.0625 0.1875 0
0.0625 0.125 0
0.09375 0.125 0
0.0625 0.15625 0
0.09375 0.15625 0
0.09375 0.125 0
0.125 0.125 0
0.09375 0.15625 0
0.125 0.15625 0
0.0625 0.15625 0
0.09375 0.15625 0
0.0625 0.1875 0
0.09375 0.1875 0
0.09375 0.15625 0
0.125 0.15625 0
0.09375 0.1875 0
0.125 0.1875 0
0 0.1875 0
0.03125 0.1875 0
0 0.21875 0
0.03125 0.21875 0
0.03125 0.1875 0
0.0625 0.1875 0
0.03125 0.21875 0
0.0625 0.21875 0
0 0.21875 0
0.03125 0.21875 0
0 0.25 0
0.03125 0.25 0
0.03125 0.21875 0
0.0625 0.21875 0
0.03125 0.25 0
0.0625 0.25 0
0.0625 0.1875 0
0.09375 0.1875 0
0.0625 0.21875 0
0.09375 0.21875 0
0.09375 0.1875 0
0.125 0.1875 0
0.09375 0.21875 0
0.125 0.21875 0
0.0625 0.21875 0
0.09375 0.21875 0
0.0625 0.25 0
0.09375 0.25 0
0.09375 0.21875 0
0.125 0.21875 0
0.09375 0.25 0
0.125 0.25 0
0.125 0.125 0
0.15625 0.125 0
0.125 0.15625 0
0.15625 0.15625 0
0.15625 0.125 0
0.1875 0.125 0
0.15625 0.15625 0
0.1875 0.15625 0
0.125 0.15625 0
0.15625 0.15625 0
0.125 0.1875 0
0.15625 0.1875 0
0.15625 0.15625 0
0.1875 0.15625 0
0.15625 0.1875 0
0.1875 0.1875 0
0.1875 0.125 0
0.21875 0.125 0
0.1875 0.15625 0
0.21875 0.15625 0
0.21875 0.125 0
0.25 0.125 0
0.21875 0.15625 0
0.25 0.15625 0
0.1875 0.15625 0
0.21875 0.15625 0
0.1875 0.1875 0
0.21875 0.1875 0
0.21875 0.15625 0
0.25 0.15625 0
0.21875 0.1875 0
0.25 0.1875 0
0.125 0.1875 0
0.15625 0.1875 0
0.125 0.21875 0
0.15625 0.21875 0
0.15625 0.1875 0
0.1875 0.1875 0
0.15625 0.21875 0
0.1875 0.21875 0
0.125 0.21875 0
0.15625 0.21875 0
0.125 0.25 0
0.15625 0.25 0
0.15625 0.21875 0
0.1875 0.21875 0
0.15625 0.25 0
0.1875 0.25 0
0.1875 0.1875 0
0.21875 0.1875 0
0.1875 0.21875 0
0.21875 0.21875 0
0.21875 0.1875 0
0.25 0.1875 0
0.21875 0.21875 0
0.25 0.21875 0
0.1875 0.21875 0
0.21875 0.21875 0
0.1875 0.25 0
0.21875 0.25 0
0.21875 0.21875 0
0.25 0.21875 0
0.21875 0.25 0
0.25 0.25 0
0.25 0 0
0.28125 0 0
0.25 0.03125 0
0.28125 0.03125 0
0.28125 0 0
0.3125 0 0
0.28125 0.03125 0
0.3125 0.03125 0
0.25 0.03125 0
0.28125 0.03125 0
0.25 0.0625 0
0.28125 0.0625 0
0.28125 0.03125 0
0.3125 0.03125 0
0.28125 0.0625 0
0.3125 0.0625 0
0.3125 0 0
0.34375 0 0
0.3125 0.03125 0
0.34375 0.03125 0
0.34375 0 0
0.375 0 0
0.34375 0.03125 0
0.375 0.03125 0
0.3125 0.03125 0
0.34375 0.03125 0
0.3125 0.0625 0
0.34375 0.0625 0
0.34375 0.03125 0
0.375 0.03125 0
0.34375 0.0625 0
0.375 0.0625 0
0.25 0.0625 0
0.28125 0.0625 0
0.25 0.09375 0
0.28125 0.09375 0
0.28125 0.0625 0
0.3125 0.0625 0
0.28125 0.09375 0
0.3125 0.09375 0
0.25 0.09375 0
0.28125 0.09375 0
0.25 0.125 0
0.28125 0.125 0
0.28125 0.09375 0
0.3125 0.09375 0
0.28125 0.125 0
0.3125 0.125 0
0.3125 0.0625 0
0.34375 0.0625 0
0.3125 0.09375 0
0.34375 0.09375 0
0.34375 0.0625 0
0.375 0.0625 0
0.34375 0.09375 0
0.375 0.09375 0
0.3125 0.09375 0
0.34375 0.09375 0
0.3125 0.125 0
0.34375 0.125 0
0.34375 0.09375 0
0.375 0.09375 0
0.34375 0.125 0
0.375 0.125 0
0.375 0 0
0.40625 0 0
0.375 0.03125 0
0.40625 0.03125 0
0.40625 0 0
0.4375 0 0
0.40625 0.03125 0
0.4375 0.03125 0
0.375 0.03125 0
0.40625 0.03125 0
0.375 0.0625 0
0.40625 0.0625 0
0.40625 0.03125 0
0.4375 0.03125 0
0.40625 0.0625 0
0.4375 0.0625 0
0.4375 0 0
0.46875 0 0
0.4375 0.03125 0
0.46875 0.03125 0
0.46875 0 0
0.5 0 0
0.46875 0.03125 0
0.5 0.03125 0
0.4375 0.03125 0
0.46875 0.03125 0
0.4375 0.0625 0
0.46875 0.0625 0
0.46875 0.03125 0
0.5 0.03125 0
0.46875 0.0625 0
0.5 0.0625 0
0.375 0.0625 0
0.40625 0.0625 0
0.375 0.09375 0
0.40625 0.09375 0
0.40625 0.0625 0
0.4375 0.0625 0
0.40625 0.09375 0
0.4375 0.09375 0
0.375 0.09375 0
0.40625 0.09375 0
0.375 0.125 0
0.40625 0.125 0
0.40625 0.09375 0
0.4375 0.09375 0
0.40625 0.125 0
0.4375 0.125 0
0.4375 0.0625 0
0.46875 0.0625 0
0.4375 0.09375 0
0.46875 0.09375 0
0.46875 0.0625 0
0.5 0.0625 0
0.46875 0.09375 0
0.5 0.09375 0
0.4375 0.09375 0
0.46875 0.09375 0
0.4375 0.125 0
0.46875 0.125 0
0.46875 0.09375 0
0.5 0.09375 0
0.46875 0.125 0
0.5 0.125 0
0.25 0.125 0
0.28125 0.125 0
0.25 0.15625 0
0.28125 0.15625 0
0.28125 0.125 0
0.3125 0.125 0
0.28125 0.15625 0
0.3125 0.15625 0
0.25 0.15625 0
0.28125 0.15625 0
0.25 0.1875 0
0.28125 0.1875 0
0.28125 0.15625 0
0.3125 0.15625 0
0.28125 0.1875 0
0.3125 0.1875 0
0.3125 0.125 0
0.34375 0.125 0
0.3125 0.15625 0
0.34375 0.15625 0
0.34375 0.125 0
0.375 0.125 0
0.34375 0.15625 0
0.375 0.15625 0
0.3125 0.15625 0
0.34375 0.15625 0
0.3125 0.1875 0
0.34375 0.1875 0
0.34375 0.15625 0
0.375 0.15625 0
0.34375 0.1875 0
0.375 0.1875 0
0.25 0.1875 0
0.28125 0.1875 0
0.25 0.21875 0
0.28125 0.21875 0
0.28125 0.1875 0
0.3125 0.1875 0
0.28125 0.21875 0
0.3125 0.21875 0
0.25 0.21875 0
0.28125 0.21875 0
0.25 0.25 0
0.28125 0.25 0
0.28125 0.21875 0
0.3125 0.21875 0
0.28125 0.25 0
0.3125 0.25 0
0.3125 0.1875 0
0.34375 0.1875 0
0.3125 0.21875 0
0.34375 0.21875 0
0.34375 0.1875 0
0.375 0.1875 0
0.34375 0.21875 0
0.375 0.21875 0
0.3125 0.21875 0
0.34375 0.21875 0
0.3125 0.25 0
0.34375 0.25 0
0.34375 0.21875 0
0.375 0.21875 0
0.34375 0.25 0
0.375 0.25 0
0.375 0.125 0
0.40625 0.125 0
0.375 0.15625 0
0.40625 0.15625 0
0.40625 0.125 0
0.4375 0.125 0
0.40625 0.15625 0
0.4375 0.15625 0
0.375 0.15625 0
0.40625 0.15625 0
0.375 0.1875 0
0.40625 0.1875 0
0.40625 0.15625 0
0.4375 0.15625 0
0.40625 0.1875 0
0.4375 0.1875 0
0.4375 0.125 0
0.46875 0.125 0
0.4375 0.15625 0
0.46875 0.15625 0
0.46875 0.125 0
0.5 0.125 0
0.46875 0.15625 0
0.5 0.15625 0
0.4375 0.15625 0
0.46875 0.15625 0
0.4375 0.1875 0
0.46875 0.1875 0
0.46875 0.15625 0
0.5 0.15625 0
0.46875 0.1875 0
0.5 0.1875 0
0.375 0.1875 0
0.40625 0.1875 0
0.375 0.21875 0
0.40625 0.21875 0
0.40625 0.1875 0
0.4375 0.1875 0
0.40625 0.21875 0
0.4375 0.21875 0
0.375 0.21875 0
0.40625 0.21875 0
0.375 0.25 0
0.40625 0.25 0
0.40625 0.21875 0
0.4375 0.21875 0
0.40625 0.25 0
0.4375 0.25 0
0.4375 0.1875 0
0.46875 0.1875 0
0.4375 0.21875 0
0.46875 0.21875 0
0.46875 0.1875 0
0.5 0.1875 0
0.46875 0.21875 0
0.5 0.21875 0
0.4375 0.21875 0
0.46875 0.21875 0
0.4375 0.25 0
0.46875 0.25 0
0.46875 0.21875 0
0.5 0.21875 0
0.46875 0.25 0
0.5 0.25 0
0 0.25 0
0.03125 0.25 0
0 0.28125 0
0.03125 0.28125 0
0.03125 0.25 0
0.0625 0.25 0
0.03125 0.28125 0
0.0625 0.28125 0
0 0.28125 0
0.03125 0.28125 0
0 0.3125 0
0.03125 0.3125 0
0.03125 0.28125 0
0.0625 0.28125 0
0.03125 0.3125 0
0.0625 0.3125 0
0.0625 0.25 0
0.09375 0.25 0
0.0625 0.28125 0
0.09375 0.28125 0
0.09375 0.25 0
0.125 0.25 0
0.09375 0.28125 0
0.125 0.28125 0
0.0625 0.28125 0
0.09375 0.28125 0
0.0625 0.3125 0
0.09375 0.3125 0
0.09375 0.28125 0
0.125 0.28125 0
0.09375 0.3125 0
0.125 0.3125 0
0 0.3125 0
0.03125 0.3125 0
0 0.34375 0
0.03125 0.34375 0
0.03125 0.3125 0
0.0625 0.3125 0
0.03125 0.34375 0
0.0625 0.34375 0
0 0.34375 0
0.03125 0.34375 0
0 0.375 0
0.03125 0.375 0
0.03125 0.34375 0
0.0625 0.34375 0
0.03125 0.375 0
0.0625 0.375 0
0.0625 0.3125 0
0.09375 0.3125 0
0.0625 0.34375 0
0.09375 0.34375 0
0.09375 0.3125 0
0.125 0.3125 0
0.09375 0.34375 0
0.125 0.34375 0
0.0625 0.34375 0
0.09375 0.34375 0
0.0625 0.375 0
0.09375 0.375 0
0.09375 0.34375 0
0.125 0.34375 0
0.09375 0.375 0
0.125 0.375 0
0.125 0.25 0
0.15625 0.25 0
0.125 0.28125 0
0.15625 0.28125 0
0.15625 0.25 0
0.1875 0.25 0
0.15625 0.28125 0
0.1875 0.28125 0
0.125 0.28125 0
0.15625 0.28125 0
0.125 0.3125 0
0.15625 0.3125 0
0.15625 0.28125 0
0.1875 0.28125 0
0.15625 0.3125 0
0.1875 0.3125 0
0.1875 0.25 0
0.21875 0.25 0
0.1875 0.28125 0
0.21875 0.28125 0
0.21875 0.25 0
0.25 0.25 0
0.21875 0.28125 0
0.25 0.28125 0
0.1875 0.28125 0
0.21875 0.28125 0
0.1875 0.3125 0
0.21875 0.3125 0
0.21875 0.28125 0
0.25 0.28125 0
0.21875 0.3125 0
0.25 0.3125 0
0.125 0.3125 0
0.15625 0.3125 0
0.125 0.34375 0
0.15625 0.34375 0
0.15625 0.3125 0
0.1875 0.3125 0
0.15625 0.34375 0
0.1875 0.34375 0
0.125 0.34375 0
[...]
POINT_DATA 4096
SCALARS p double 1
LOOKUP_TABLE default
-2.24852e-07 0.000125918 -0.000126626 -4.65724e-08 0.000125918 0.000330388 -4.65724e-08 9.11105e-05 -0.000126626 -4.65724e-08 -0.000333804 -9.0489e-05 -4.65724e-08 9.11105e-05 -9.0489e-05 2.93212e-06 0.000330388 0.000396814 9.11105e-05 9.85967e-05 0.000396814 0.000266461 9.85967e-05 -2.74448e-05 9.11105e-05 9.85967e-05 2.93212e-06 -4.69184e-06 9.85967e-05 -2.74448e-05 -4.69184e-06 -0.000156596 -0.000333804 -9.0489e-05 -0.000408024 -9.69983e-05 -9.0489e-05 2.93212e-06 -9.69983e-05 1.82899e-05 -0.000408024 -9.69983e-05 -0.000289223 3.27507e-05 -9.69983e-05 1.82899e-05 3.27507e-05 0.00018386 2.93212e-06 -4.69184e-06 1.82899e-05 1.37665e-05 -4.69184e-06 -0.000156596 1.37665e-05 -0.00013885 1.82899e-05 1.37665e-05 0.00018386 0.000185725 1.37665e-05 -0.00013885 0.000185725 3.37649e-05 0.000266461 -6.38464e-05 -2.74448e-05 -0.000297487 -6.38464e-05 -0.000581158 -0.000297487 -0.000710492 -2.74448e-05 -0.000297487 -0.000156596 -0.000457728 -0.000297487 -0.000710492 -0.000457728 -0.000909682 -0.000581158 -0.0012718 -0.000710492 -0.00126006 -0.0012718 -0.00212328 -0.00126006 -0.00193798 -0.000710492 -0.00126006 -0.000909682 -0.00150789 -0.00126006 -0.00193798 -0.00150789 -0.00224496 -0.000156596 -0.000457728 -0.00013885 -0.000437239 -0.000457728 -0.000909682 -0.000437239 -0.000881702 -0.00013885 -0.000437239 3.37649e-05 -0.000269091 -0.000437239 -0.000881702 -0.000269091 -0.000720489 -0.000909682 -0.00150789 -0.000881702 -0.00146827 -0.00150789 -0.00224496 -0.00146827 -0.00219042 -0.000881702 -0.00146827 -0.000720489 -0.001316 -0.00146827 -0.00219042 -0.001316 -0.00204901 -0.000289223 3.27507e-05 3.18464e-05 0.000314672 3.27507e-05 0.00018386 0.000314672 0.000511029 3.18464e-05 0.000314672 0.000552612 0.000756315 0.000314672 0.000511029 0.000756315 0.00101096 0.00018386 0.000185725 0.000511029 0.000515444 0.000185725 3.37649e-05 0.000515444 0.000365023 0.000511029 0.000515444 0.00101096 0.00101261 0.000515444 0.000365023 0.00101261 0.000861937 0.000552612 0.000756315 0.00127393 0.00136318 0.000756315 0.00101096 0.00136318 0.00169218 0.00127393 0.00136318 0.00220211 0.00214257 0.00136318 0.00169218 0.00214257 0.00256437 0.00101096 0.00101261 0.00169218 0.00168608 0.00101261 0.000861937 0.00168608 0.00153288 0.00169218 0.00168608 0.00256437 0.00254605 0.00168608 0.00153288 0.00254605 0.00238794 3.37649e-05 -0.000269091 0.000365023 5.6598e-05 -0.000269091 -0.000720489 5.6598e-05 -0.000404697 0.000365023 5.6598e-05 0.000861937 0.000543959 5.6598e-05 -0.000404697 0.000543959 6.68409e-05 -0.000720489 -0.001316 -0.000404697 -0.00101395 -0.001316 -0.00204901 -0.00101395 -0.0017642 -0.000404697 -0.00101395 6.68409e-05 -0.000564288 -0.00101395 -0.0017642 -0.000564288 -0.00134191 0.000861937 0.000543959 0.00153288 0.00120085 0.000543959 6.68409e-05 0.00120085 0.000701747 0.00153288 0.00120085 0.00238794 0.0020369 0.00120085 0.000701747 0.0020369 0.00150903 6.68409e-05 -0.000564288 0.000701747 4.06514e-05 -0.000564288 -0.00134191 4.06514e-05 -0.000774283 0.000701747 4.06514e-05 0.00150903 0.000809252 4.06514e-05 -0.000774283 0.000809252 -5.35696e-05 -0.00212328 -0.00312332 -0.00193798 -0.00273499 -0.00312332 -0.00425889 -0.00273499 -0.00364082 -0.00193798 -0.00273499 -0.00224496 -0.00311153 -0.00273499 -0.00364082 -0.00311153 -0.00409672 -0.00425889 -0.0055157 -0.00364082 -0.00464406 -0.0055157 -0.00687813 -0.00464406 -0.00573217 -0.00364082 -0.00464406 -0.00409672 -0.0051882 -0.00464406 -0.00573217 -0.0051882 -0.00637239 -0.00224496 -0.00311153 -0.00219042 -0.00303952 -0.00311153 -0.00409672 -0.00303952 -0.00400522 -0.00219042 -0.00303952 -0.00204901 -0.00291099 -0.00303952 -0.00400522 -0.00291099 -0.0038916 -0.00409672 -0.0051882 -0.00400522 -0.00507563 -0.0051882 -0.00637239 -0.00507563 -0.00623751 -0.00400522 -0.00507563 -0.0038916 -0.00497892 -0.00507563 -0.00623751 -0.00497892 -0.00615965 -0.00687813 -0.00832924 -0.00573217 -0.00689153 -0.00832924 -0.00985081 -0.00689153 -0.00810754 -0.00573217 -0.00689153 -0.00637239 -0.00763445 -0.00689153 -0.00810754 -0.00763445 -0.00895846 -0.00985081 -0.0114236 -0.00810754 -0.0093647 -0.0114236 -0.0130273 -0.0093647 -0.0106468 -0.00810754 -0.0093647 -0.00895846 -0.0103275 -0.0093647 -0.0106468 -0.0103275 -0.0117239 -0.00637239 -0.00763445 -0.00623751 -0.00747638 -0.00763445 -0.00895846 -0.00747638 -0.00877663 -0.00623751 -0.00747638 -0.00615965 -0.00741913 -0.00747638 -0.00877663 -0.00741913 -0.00874162 -0.00895846 -0.0103275 -0.00877663 -0.0101217 -0.0103275 -0.0117239 -0.0101217 -0.0114941 -0.00877663 -0.0101217 -0.00874162 -0.0101103 -0.0101217 -0.0114941 -0.0101103 -0.0115075 -0.00204901 -0.00291099 -0.0017642 -0.00264668 -0.00291099 -0.0038916 -0.00264668 -0.00365094 -0.0017642 -0.00264668 -0.00134191 -0.00225692 -0.00264668 -0.00365094 -0.00225692 -0.0032985 -0.0038916 -0.00497892 -0.00365094 -0.0047649 -0.00497892 -0.00615965 -0.0047649 -0.00597503 -0.00365094 -0.0047649 -0.0032985 -0.00445423 -0.0047649 -0.00597503 -0.00445423 -0.0057102 -0.00134191 -0.00225692 -0.000774283 -0.00173348 -0.00225692 -0.0032985 -0.00173348 -0.00282562 -0.000774283 -0.00173348 -5.35696e-05 -0.00106928 -0.00173348 -0.00282562 -0.00106928 -0.0022259 -0.0032985 -0.00445423 -0.00282562 -0.00403776 -0.00445423 -0.0057102 -0.00403776 -0.00535546 -0.00282562 -0.00403776 -0.0022259 -0.00350981 -0.00403776 -0.00535546 -0.00350981 -0.0049059 -0.00615965 -0.00741913 -0.00597503 -0.00726646 -0.00741913 -0.00874162 -0.00726646 -0.00862315 -0.00597503 -0.00726646 -0.0057102 -0.00705114 -0.00726646 -0.00862315 -0.00705114 -0.00846054 -0.00874162 -0.0101103 -0.00862315 -0.010028 -0.0101103 -0.0115075 -0.010028 -0.0114629 -0.00862315 -0.010028 -0.00846054 -0.00992076 -0.010028 -0.0114629 -0.00992076 -0.0114133 -0.0057102 -0.00705114 -0.00535546 -0.00676287 -0.00705114 -0.00846054 -0.00676287 -0.00824288 -0.00535546 -0.00676287 -0.0049059 -0.00639756 -0.00676287 -0.00824288 -0.00639756 -0.00796695 -0.00846054 -0.00992076 -0.00824288 -0.00977719 -0.00992076 -0.0114133 -0.00977719 -0.0113465 -0.00824288 -0.00977719 -0.00796695 -0.00959496 -0.00977719 -0.0113465 -0.00959496 -0.0112614 0.00220211 0.00214257 0.00334824 0.00310447 0.00214257 0.00256437 0.00310447 0.00363948 0.00334824 0.00310447 0.00472742 0.00426184 0.00310447 0.00363948 0.00426184 0.00493231 0.00256437 0.00254605 0.00363948 0.00360473 0.00254605 0.00238794 0.00360473 0.00343939 0.00363948 0.00360473 0.00493231 0.00487698 0.00360473 0.00343939 0.00487698 0.00470206 0.00472742 0.00426184 0.00635845 0.00563069 0.00426184 0.00493231 0.00563069 0.00646096 0.00635845 0.00563069 0.00826402 0.00723034 0.00563069 0.00646096 0.00723034 0.00824724 0.00493231 0.00487698 0.00646096 0.00638075 0.00487698 0.00470206 0.00638075 0.00619378 0.00646096 0.00638075 0.00824724 0.00813754 0.00638075 0.00619378 0.00813754 0.00793581 0.00238794 0.0020369 0.00343939 0.00306405 0.0020369 0.00150903 0.00306405 0.00250016 0.00343939 0.00306405 0.00470206 0.00429678 0.00306405 0.00250016 0.00429678 0.00368907 0.00150903 0.000809252 0.00250016 0.0017524 0.000809252 -5.35696e-05 0.0017524 0.000830499 0.00250016 0.0017524 0.00368907 0.00288335 0.0017524 0.000830499 0.00288335 0.00189037 0.00470206 0.00429678 0.00619378 0.00575244 0.00429678 0.00368907 0.00575244 0.00509238 0.00619378 0.00575244 0.00793581 0.0074516 0.00575244 0.00509238 0.0074516 0.00672974 0.00368907 0.00288335 0.00509238 0.00421784 0.00288335 0.00189037 0.00421784 0.00314085 0.00509238 0.00421784 0.00672974 0.00577441 0.00421784 0.00314085 0.00577441 0.00459925 0.00826402 0.00723034 0.0104711 0.00908386 0.00723034 0.00824724 0.00908386 0.0103171 0.0104711 0.00908386 0.0130114 0.0112187 0.00908386 0.0103171 0.0112187 0.0127016 0.00824724 0.00813754 0.0103171 0.0101729 0.00813754 0.00793581 0.0101729 0.00995331 0.0103171 0.0101729 0.0127016 0.0125173 0.0101729 0.00995331 0.0125173 0.012276 0.0130114 0.0112187 0.0159225 0.0136673 0.0112187 0.0127016 0.0136673 0.0154375 0.0159225 0.0136673 0.0192491 0.0164689 0.0136673 0.0154375 0.0164689 0.0185691 0.0127016 0.0125173 0.0154375 0.0152069 0.0125173 0.012276 0.0152069 0.0149392 0.0154375 0.0152069 0.0185691 0.018285 0.0152069 0.0149392 0.018285 0.0179846 0.00793581 0.0074516 0.00995331 0.00941849 0.0074516 0.00672974 0.00941849 0.00862418 0.00995331 0.00941849 0.012276 0.0116816 0.00941849 0.00862418 0.0116816 0.0108025 0.00672974 0.00577441 0.00862418 0.00757464 0.00577441 0.00459925 0.00757464 0.00628559 0.00862418 0.00757464 0.0108025 0.00964344 0.00757464 0.00628559 0.00964344 0.00822278 0.012276 0.0116816 0.0149392 0.0142743 0.0116816 0.0108025 0.0142743 0.0132958 0.0149392 0.0142743 0.0179846 0.0172359 0.0142743 0.0132958 0.0172359 0.0161403 0.0108025 0.00964344 0.0132958 0.0120094 0.00964344 0.00822278 0.0120094 0.0104369 0.0132958 0.0120094 0.0161403 0.0147054 0.0120094 0.0104369 0.0147054 0.0129571 -5.35696e-05 -0.00106928 0.000830499 -0.000254688 -0.00106928 -0.0022259 -0.000254688 -0.00149036 0.000830499 -0.000254688 0.00189037 0.000721913 -0.000254688 -0.00149036 0.000721913 -0.000608267 -0.0022259 -0.00350981 -0.00149036 -0.0028621 -0.00350981 -0.0049059 -0.0028621 -0.00435391 -0.00149036 -0.0028621 -0.000608267 -0.00208474 -0.0028621 -0.00435391 -0.00208474 -0.00369052 0.00189037 0.000721913 0.00314085 0.0018743 0.000721913 -0.000608267 0.0018743 0.000433138 0.00314085 0.0018743 0.00459925 0.00321852 0.0018743 0.000433138 0.00321852 0.00164862 -0.000608267 -0.00208474 0.000433138 -0.00116603 -0.00208474 -0.00369052 -0.00116603 -0.00290503 0.000433138 -0.00116603 0.00164862 -9.24176e-05 -0.00116603 -0.00290503 -9.24176e-05 -0.00198508 -0.0049059 -0.00639756 -0.00435391 -0.00594835 -0.00639756 -0.00796695 -0.00594835 -0.00762664 -0.00435391 -0.00594835 -0.00369052 -0.00540714 -0.00594835 -0.00762664 -0.00540714 -0.00721481 -0.00796695 -0.00959496 -0.00762664 -0.00936876 -0.00959496 -0.0112614 -0.00936876 -0.0111535 -0.00762664 -0.00936876 -0.00721481 -0.00909247 -0.00936876 -0.0111535 -0.00909247 -0.0110178 -0.00369052 -0.00540714 -0.00290503 -0.00476426 -0.00540714 -0.00721481 -0.00476426 -0.00672283 -0.00290503 -0.00476426 -0.00198508 -0.0040085 -0.00476426 -0.00672283 -0.0040085 -0.00614058 -0.00721481 -0.00909247 -0.00672283 -0.00875853 -0.00909247 -0.0110178 -0.00875853 -0.0108479 -0.00672283 -0.00875853 -0.00614058 -0.00835796 -0.00875853 -0.0108479 -0.00835796 -0.0106361 0.00459925 0.00321852 0.00628559 0.00477302 0.00321852 0.00164862 0.00477302 0.00305512 0.00628559 0.00477302 0.00822278 0.00655874 0.00477302 0.00305512 0.00655874 0.00467168 0.00164862 -9.24176e-05 0.00305512 0.00115158 -9.24176e-05 -0.00198508 0.00115158 -0.000916511 0.00305512 0.00115158 0.00467168 0.00258332 0.00115158 -0.000916511 0.00258332 0.00031652 0.00822278 0.00655874 0.0104369 0.00859919 0.00655874 0.00467168 0.00859919 0.0065195 0.0104369 0.00859919 0.0129571 0.0109204 0.00859919 0.0065195 0.0109204 0.00862179 0.00467168 0.00258332 0.0065195 0.00422198 0.00258332 0.00031652 0.00422198 0.00173151 0.0065195 0.00422198 0.00862179 0.00608833 0.00422198 0.00173151 0.00608833 0.0033473 -0.00198508 -0.0040085 -0.000916511 -0.00312692 -0.0040085 -0.00614058 -0.00312692 -0.00545629 -0.000916511 -0.00312692 0.00031652 -0.00210497 -0.00312692 -0.00545629 -0.00210497 -0.00465657 -0.00614058 -0.00835796 -0.00545629 -0.00788015 -0.00835796 -0.0106361 -0.00788015 -0.0103728 -0.00545629 -0.00788015 -0.00465657 -0.00731277 -0.00788015 -0.0103728 -0.00731277 -0.010047 0.00031652 -0.00210497 0.00173151 -0.000926548 -0.00210497 -0.00465657 -0.000926548 -0.00372639 0.00173151 -0.000926548 0.0033473 0.000425793 -0.000926548 -0.00372639 0.000425793 -0.00264927 -0.00465657 -0.00731277 -0.00372639 -0.00664167 -0.00731277 -0.010047 -0.00664167 -0.00964518 -0.00372639 -0.00664167 -0.00264927 -0.00585098 -0.00664167 -0.00964518 -0.00585098 -0.00915199 -0.0130273 -0.0146411 -0.0106468 -0.011937 -0.0146411 -0.0162437 -0.011937 -0.0132181 -0.0106468 -0.011937 -0.0117239 -0.0131293 -0.011937 -0.0132181 -0.0131293 -0.0145248 -0.0162437 -0.0178132 -0.0132181 -0.0144727 -0.0178132 -0.019328 -0.0144727 -0.0156833 -0.0132181 -0.0144727 -0.0145248 -0.0158915 -0.0144727 -0.0156833 -0.0158915 -0.0172102 -0.0117239 -0.0131293 -0.0114941 -0.0128759 -0.0131293 -0.0145248 -0.0128759 -0.0142485 -0.0114941 -0.0128759 -0.0115075 -0.0129149 -0.0128759 -0.0142485 -0.0129149 -0.0143136 -0.0145248 -0.0158915 -0.0142485 -0.0155932 -0.0158915 -0.0172102 -0.0155932 -0.016891 -0.0142485 -0.0155932 -0.0143136 -0.0156845 -0.0155932 -0.016891 -0.0156845 -0.0170083 -0.019328 -0.0207668 -0.0156833 -0.0168327 -0.0207668 -0.0221086 -0.0168327 -0.0179042 -0.0156833 -0.0168327 -0.0172102 -0.0184622 -0.0168327 -0.0179042 -0.0184622 -0.0196292 -0.0221086 -0.0233335 -0.0179042 -0.0188818 -0.0233335 -0.0244226 -0.0188818 -0.0197503 -0.0179042 -0.0188818 -0.0196292 -0.0206937 -0.0188818 -0.0197503 -0.0206937 -0.0216394 -0.0172102 -0.0184622 -0.016891 -0.0181234 -0.0184622 -0.0196292 -0.0181234 -0.0192724 -0.016891 -0.0181234 -0.0170083 -0.0182659 -0.0181234 -0.0192724 -0.0182659 -0.019439 -0.0196292 -0.0206937 -0.0192724 -0.0203206 -0.0206937 -0.0216394 -0.0203206 -0.0212519 -0.0192724 -0.0203206 -0.019439 -0.0205096 -0.0203206 -0.0212519 -0.0205096 -0.0214613 -0.0115075 -0.0129149 -0.0114629 -0.0129092 -0.0129149 -0.0143136 -0.0129092 -0.0143474 -0.0114629 -0.0129092 -0.0114133 -0.0129186 -0.0129092 -0.0143474 -0.0129186 -0.0144168 -0.0143136 -0.0156845 -0.0143474 -0.015758 -0.0156845 -0.0170083 -0.015758 -0.0171211 -0.0143474 -0.015758 -0.0144168 -0.0158874 -0.015758 -0.0171211 -0.0158874 -0.0173097 -0.0114133 -0.0129186 -0.0113465 -0.0129307 -0.0129186 -0.0144168 -0.0129307 -0.0145088 -0.0113465 -0.0129307 -0.0112614 -0.0129452 -0.0129307 -0.0145088 -0.0129452 -0.0146243 -0.0144168 -0.0158874 -0.0145088 -0.0160593 -0.0158874 -0.0173097 -0.0160593 -0.0175605 -0.0145088 -0.0160593 -0.0146243 -0.016276 -0.0160593 -0.0175605 -0.016276 -0.0178773 -0.0170083 -0.0182659 -0.0171211 -0.018417 -0.0182659 -0.019439 -0.018417 -0.0196265 -0.0171211 -0.018417 -0.0173097 -0.0186631 -0.018417 -0.0196265 -0.0186631 -0.0199273 -0.019439 -0.0205096 -0.0196265 -0.0207311 -0.0205096 -0.0214613 -0.0207311 -0.0217136 -0.0196265 -0.0207311 -0.0199273 -0.021083 -0.0207311 -0.0217136 -0.021083 -0.0221117 -0.0173097 -0.0186631 -0.0175605 -0.0189906 -0.0186631 -0.0199273 -0.0189906 -0.0203281 -0.0175605 -0.0189906 -0.0178773 -0.0194048 -0.0189906 -0.0203281 -0.0194048 -0.0208353 -0.0199273 -0.021083 -0.0203281 -0.021552 -0.021083 -0.0221117 -0.021552 -0.0226425 -0.0203281 -0.021552 -0.0208353 -0.0221461 -0.021552 -0.0226425 -0.0221461 -0.0233157 -0.0244226 -0.0253584 -0.0197503 -0.0204957 -0.0253584 -0.0261237 -0.0204957 -0.0211061 -0.0197503 -0.0204957 -0.0216394 -0.0224511 -0.0204957 -0.0211061 -0.0224511 -0.0231163 -0.0261237 -0.026705 -0.0211061 -0.0215659 -0.026705 -0.0270728 -0.0215659 -0.0218908 -0.0211061 -0.0215659 -0.0231163 -0.0236208 -0.0215659 -0.0218908 -0.0236208 -0.0239769 -0.0216394 -0.0224511 -0.0212519 -0.0220517 -0.0224511 -0.0231163 -0.0220517 -0.0227078 -0.0212519 -0.0220517 -0.0214613 -0.0222789 -0.0220517 -0.0227078 -0.0222789 -0.0229501 -0.0231163 -0.0236208 -0.0227078 -0.0232065 -0.0236208 -0.0239769 -0.0232065 -0.0235616 -0.0227078 -0.0232065 -0.0229501 -0.0234607 -0.0232065 -0.0235616 -0.0234607 -0.0238237 -0.0270728 -0.0272777 -0.0218908 -0.0219545 -0.0272777 -0.0272282 -0.0219545 -0.0224131 -0.0218908 -0.0219545 -0.0239769 -0.0240773 -0.0219545 -0.0224131 -0.0240773 -0.0245223 -0.0272282 -0.0257152 -0.0224131 -0.0201007 -0.0257152 -0.0280737 -0.0201007 -0.0254549 -0.0224131 -0.0201007 -0.0245223 -0.0222328 -0.0201007 -0.0254549 -0.0222328 -0.026554 -0.0239769 -0.0240773 -0.0235616 -0.0236592 -0.0240773 -0.0245223 -0.0236592 -0.0241219 -0.0235616 -0.0236592 -0.0238237 -0.023924 -0.0236592 -0.0241219 -0.023924 -0.0243771 -0.0245223 -0.0222328 -0.0241219 -0.0217779 -0.0222328 -0.026554 -0.0217779 -0.0264819 -0.0241219 -0.0217779 -0.0243771 -0.0220041 -0.0217779 -0.0264819 -0.0220041 -0.0265673 -0.0214613 -0.0222789 -0.0217136 -0.0225581 -0.0222789 -0.0229501 -0.0225581 -0.0232516 -0.0217136 -0.0225581 -0.0221117 -0.0229965 -0.0225581 -0.0232516 -0.0229965 -0.0237233 -0.0229501 -0.0234607 -0.0232516 -0.0237791 -0.0234607 -0.0238237 -0.0237791 -0.0241527 -0.0232516 -0.0237791 -0.0237233 -0.0242758 -0.0237791 -0.0241527 -0.0242758 -0.0246657 -0.0221117 -0.0229965 -0.0226425 -0.0235813 -0.0229965 -0.0237233 -0.0235813 -0.0243527 -0.0226425 -0.0235813 -0.0233157 -0.0243236 -0.0235813 -0.0243527 -0.0243236 -0.0251525 -0.0237233 -0.0242758 -0.0243527 -0.0249392 -0.0242758 -0.0246657 -0.0249392 -0.0253518 -0.0243527 -0.0249392 -0.0251525 -0.025783 -0.0249392 -0.0253518 -0.025783 -0.0262258 -0.0238237 -0.023924 -0.0241527 -0.0242541 -0.023924 -0.0243771 -0.0242541 -0.0247064 -0.0241527 -0.0242541 -0.0246657 -0.0247712 -0.0242541 -0.0247064 -0.0247712 -0.0252276 -0.0243771 -0.0220041 -0.0247064 -0.0222823 -0.0220041 -0.0265673 -0.0222823 -0.0269127 -0.0247064 -0.0222823 -0.0252276 -0.0227437 -0.0222823 -0.0269127 -0.0227437 -0.0274503 -0.0246657 -0.0247712 -0.0253518 -0.0254647 -0.0247712 -0.0252276 -0.0254647 -0.0259312 -0.0253518 -0.0254647 -0.0262258 -0.02635 -0.0254647 -0.0259312 -0.02635 -0.0268317 -0.0252276 -0.0227437 -0.0259312 -0.0233702 -0.0227437 -0.0274503 -0.0233702 -0.0281943 -0.0259312 -0.0233702 -0.0268317 -0.0241747 -0.0233702 -0.0281943 -0.0241747 -0.0291497 -0.0112614 -0.0129452 -0.0111535 -0.0129587 -0.0129452 -0.0146243 -0.0129587 -0.014761 -0.0111535 -0.0129587 -0.0110178 -0.0129674 -0.0129587 -0.014761 -0.0129674 -0.0149166 -0.0146243 -0.016276 -0.014761 -0.0165365 -0.016276 -0.0178773 -0.0165365 -0.0182603 -0.014761 -0.0165365 -0.0149166 -0.0168399 -0.0165365 -0.0182603 -0.0168399 -0.0187106 -0.0110178 -0.0129674 -0.0108479 -0.0129662 -0.0129674 -0.0149166 -0.0129662 -0.0150875 -0.0108479 -0.0129662 -0.0106361 -0.0129488 -0.0129662 -0.0150875 -0.0129488 -0.0152689 -0.0149166 -0.0168399 -0.0150875 -0.0171844 -0.0168399 -0.0187106 -0.0171844 -0.0192283 -0.0150875 -0.0171844 -0.0152689 -0.0175671 -0.0171844 -0.0192283 -0.0175671 -0.0198128 -0.0178773 -0.0194048 -0.0182603 -0.0199075 -0.0194048 -0.0208353 -0.0199075 -0.0214526 -0.0182603 -0.0199075 -0.0187106 -0.0205015 -0.0199075 -0.0214526 -0.0205015 -0.0221851 -0.0208353 -0.0221461 -0.0214526 -0.022871 -0.0221461 -0.0233157 -0.022871 -0.0241385 -0.0214526 -0.022871 -0.0221851 -0.0237338 -0.022871 -0.0241385 -0.0237338 -0.0251205 -0.0187106 -0.0205015 -0.0192283 -0.0211896 -0.0205015 -0.0221851 -0.0211896 -0.0230379 -0.0192283 -0.0211896 -0.0198128 -0.0219737 -0.0211896 -0.0230379 -0.0219737 -0.0240161 -0.0221851 -0.0237338 -0.0230379 -0.0247424 -0.0237338 -0.0251205 -0.0247424 -0.0262727 -0.0230379 -0.0247424 -0.0240161 -0.0259054 -0.0247424 -0.0262727 -0.0259054 -0.027607 -0.0106361 -0.0129488 -0.0103728 -0.0129072 -0.0129488 -0.0152689 -0.0129072 -0.0154543 -0.0103728 -0.0129072 -0.010047 -0.0128311 -0.0129072 -0.0154543 -0.0128311 -0.0156353 -0.0152689 -0.0175671 -0.0154543 -0.0179836 -0.0175671 -0.0198128 -0.0179836 -0.0204622 -0.0154543 -0.0179836 -0.0156353 -0.0184274 -0.0179836 -0.0204622 -0.0184274 -0.0211725 -0.010047 -0.0128311 -0.00964518 -0.0127084 -0.0128311 -0.0156353 -0.0127084 -0.0158007 -0.00964518 -0.0127084 -0.00915199 -0.0125239 -0.0127084 -0.0158007 -0.0125239 -0.0159362 -0.0156353 -0.0184274 -0.0158007 -0.0188891 -0.0184274 -0.0211725 -0.0188891 -0.0219368 -0.0158007 -0.0188891 -0.0159362 -0.0193555 -0.0188891 -0.0219368 -0.0193555 -0.0227442 -0.0198128 -0.0219737 -0.0204622 -0.0228549 -0.0219737 -0.0240161 -0.0228549 -0.0251244 -0.0204622 -0.0228549 -0.0211725 -0.0238325 -0.0228549 -0.0251244 -0.0238325 -0.0263661 -0.0240161 -0.0259054 -0.0251244 -0.0272316 -0.0259054 -0.027607 -0.0272316 -0.0291366 -0.0251244 -0.0272316 -0.0263661 -0.0287293 -0.0272316 -0.0291366 -0.0287293 -0.0308755 -0.0211725 -0.0238325 -0.0219368 -0.0249031 -0.0238325 -0.0263661 -0.0249031 -0.0277426 -0.0219368 -0.0249031 -0.0227442 