# vtk DataFile Version 3.0
#This file was generated by the deal.II library on 2026/1/5 at 14:19:33
ASCII
DATASET UNSTRUCTURED_GRID

POINTS 4096 double
0 0 0
0.03125 0 0
0 0.03125 0
0.03125 0.03125 0
0.03125 0 0
0.0625 0 0
0.03125 0.03125 0
0.0625 0.03125 0
0 0.03125 0
0.03125 0.03125 0
0 0.0625 0
0.03125 0.0625 0
0.03125 0.03125 0
0.0625 0.03125 0
0.03125 0.0625 0
0.0625 0.0625 0
0.0625 0 0
0.09375 0 0
0.0625 0.03125 0
0.09375 0.03125 0
0.09375 0 0
0.125 0 0
0.09375 0.03125 0
0.125 0.03125 0
0.0625 0.03125 0
0.09375 0.03125 0
0.0625 0.0625 0
0.09375 0.0625 0
0.09375 0.03125 0
0.125 0.03125 0
0.09375 0.0625 0
0.125 0.0625 0
0 0.0625 0
0.03125 0.0625 0
0 0.09375 0
0.03125 0.09375 0
0.03125 0.0625 0
0.0625 0.0625 0
0.03125 0.09375 0
0.0625 0.09375 0
0 0.09375 0
0.03125 0.09375 0
0 0.125 0
0.03125 0.125 0
0.03125 0.09375 0
0.0625 0.09375 0
0.03125 0.125 0
0.0625 0.125 0
0.0625 0.0625 0
0.09375 0.0625 0
0.0625 0.09375 0
0.09375 0.09375 0
0.09375 0.0625 0
0.125 0.0625 0
0.09375 0.09375 0
0.125 0.09375 0
0.0625 0.09375 0
0.09375 0.09375 0
0.0625 0.125 0
0.09375 0.125 0
0.09375 0.09375 0
0.125 0.09375 0
0.09375 0.125 0
0.125 0.125 0
0.125 0 0
0.15625 0 0
0.125 0.03125 0
0.15625 0.03125 0
0.15625 0 0
0.1875 0 0
0.15625 0.03125 0
0.1875 0.03125 0
0.125 0.03125 0
0.15625 0.03125 0
0.125 0.0625 0
0.15625 0.0625 0
0.15625 0.03125 0
0.1875 0.03125 0
0.15625 0.0625 0
0.1875 0.0625 0
0.1875 0 0
0.21875 0 0
0.1875 0.03125 0
0.21875 0.03125 0
0.21875 0 0
0.25 0 0
0.21875 0.03125 0
0.25 0.03125 0
0.1875 0.03125 0
0.21875 0.03125 0
0.1875 0.0625 0
0.21875 0.0625 0
0.21875 0.03125 0
0.25 0.03125 0
0.21875 0.0625 0
0.25 0.0625 0
0.125 0.0625 0
0.15625 0.0625 0
0.125 0.09375 0
0.15625 0.09375 0
0.15625 0.0625 0
0.1875 0.0625 0
0.15625 0.09375 0
0.1875 0.09375 0
0.125 0.09375 0
0.15625 0.09375 0
0.125 0.125 0
0.15625 0.125 0
0.15625 0.09375 0
0.1875 0.09375 0
0.15625 0.125 0
0.1875 0.125 0
0.1875 0.0625 0
0.21875 0.0625 0
0.1875 0.09375 0
0.21875 0.09375 0
0.21875 0.0625 0
0.25 0.0625 0
0.21875 0.09375 0
0.25 0.09375 0
0.1875 0.09375 0
0.21875 0.09375 0
0.1875 0.125 0
0.21875 0.125 0
0.21875 0.09375 0
0.25 0.09375 0
0.21875 0.125 0
0.25 0.125 0
0 0.125 0
0.03125 0.125 0
0 0.15625 0
0.03125 0.15625 0
0.03125 0.125 0
0.0625 0.125 0
0.03125 0.15625 0
0.0625 0.15625 0
0 0.15625 0
0.03125 0.15625 0
0 0.1875 0
0.03125 0.1875 0
0.03125 0.15625 0
0.0625 0.15625 0
0.03125 0.1875 0
0.0625 0.1875 0
0.0625 0.125 0
0.09375 0.125 0
0.0625 0.15625 0
0.09375 0.15625 0
0.09375 0.125 0
0.125 0.125 0
0.09375 0.15625 0
0.125 0.15625 0
0.0625 0.15625 0
0.09375 0.15625 0
0.0625 0.1875 0
0.09375 0.1875 0
0.09375 0.15625 0
0.125 0.15625 0
0.09375 0.1875 0
0.125 0.1875 0
0 0.1875 0
0.03125 0.1875 0
0 0.21875 0
0.03125 0.21875 0
0.03125 0.1875 0
0.0625 0.1875 0
0.03125 0.21875 0
0.0625 0.21875 0
0 0.21875 0
0.03125 0.21875 0
0 0.25 0
0.03125 0.25 0
0.03125 0.21875 0
0.0625 0.21875 0
0.03125 0.25 0
0.0625 0.25 0
0.0625 0.1875 0
0.09375 0.1875 0
0.0625 0.21875 0
0.09375 0.21875 0
0.09375 0.1875 0
0.125 0.1875 0
0.09375 0.21875 0
0.125 0.21875 0
0.0625 0.21875 0
0.09375 0.21875 0
0.0625 0.25 0
0.09375 0.25 0
0.09375 0.21875 0
0.125 0.21875 0
0.09375 0.25 0
0.125 0.25 0
0.125 0.125 0
0.15625 0.125 0
0.125 0.15625 0
0.15625 0.15625 0
0.15625 0.125 0
0.1875 0.125 0
0.15625 0.15625 0
0.1875 0.15625 0
0.125 0.15625 0
0.15625 0.15625 0
0.125 0.1875 0
0.15625 0.1875 0
0.15625 0.15625 0
0.1875 0.15625 0
0.15625 0.1875 0
0.1875 0.1875 0
0.1875 0.125 0
0.21875 0.125 0
0.1875 0.15625 0
0.21875 0.15625 0
0.21875 0.125 0
0.25 0.125 0
0.21875 0.15625 0
0.25 0.15625 0
0.1875 0.15625 0
0.21875 0.15625 0
0.1875 0.1875 0
0.21875 0.1875 0
0.21875 0.15625 0
0.25 0.15625 0
0.21875 0.1875 0
0.25 0.1875 0
0.125 0.1875 0
0.15625 0.1875 0
0.125 0.21875 0
0.15625 0.21875 0
0.15625 0.1875 0
0.1875 0.1875 0
0.15625 0.21875 0
0.1875 0.21875 0
0.125 0.21875 0
0.15625 0.21875 0
0.125 0.25 0
0.15625 0.25 0
0.15625 0.21875 0
0.1875 0.21875 0
0.15625 0.25 0
0.1875 0.25 0
0.1875 0.1875 0
0.21875 0.1875 0
0.1875 0.21875 0
0.21875 0.21875 0
0.21875 0.1875 0
0.25 0.1875 0
0.21875 0.21875 0
0.25 0.21875 0
0.1875 0.21875 0
0.21875 0.21875 0
0.1875 0.25 0
0.21875 0.25 0
0.21875 0.21875 0
0.25 0.21875 0
0.21875 0.25 0
0.25 0.25 0
0.25 0 0
0.28125 0 0
0.25 0.03125 0
0.28125 0.03125 0
0.28125 0 0
0.3125 0 0
0.28125 0.03125 0
0.3125 0.03125 0
0.25 0.03125 0
0.28125 0.03125 0
0.25 0.0625 0
0.28125 0.0625 0
0.28125 0.03125 0
0.3125 0.03125 0
0.28125 0.0625 0
0.3125 0.0625 0
0.3125 0 0
0.34375 0 0
0.3125 0.03125 0
0.34375 0.03125 0
0.34375 0 0
0.375 0 0
0.34375 0.03125 0
0.375 0.03125 0
0.3125 0.03125 0
0.34375 0.03125 0
0.3125 0.0625 0
0.34375 0.0625 0
0.34375 0.03125 0
0.375 0.03125 0
0.34375 0.0625 0
0.375 0.0625 0
0.25 0.0625 0
0.28125 0.0625 0
0.25 0.09375 0
0.28125 0.09375 0
0.28125 0.0625 0
0.3125 0.0625 0
0.28125 0.09375 0
0.3125 0.09375 0
0.25 0.09375 0
0.28125 0.09375 0
0.25 0.125 0
0.28125 0.125 0
0.28125 0.09375 0
0.3125 0.09375 0
0.28125 0.125 0
0.3125 0.125 0
0.3125 0.0625 0
0.34375 0.0625 0
0.3125 0.09375 0
0.34375 0.09375 0
0.34375 0.0625 0
0.375 0.0625 0
0.34375 0.09375 0
0.375 0.09375 0
0.3125 0.09375 0
0.34375 0.09375 0
0.3125 0.125 0
0.34375 0.125 0
0.34375 0.09375 0
0.375 0.09375 0
0.34375 0.125 0
0.375 0.125 0
0.375 0 0
0.40625 0 0
0.375 0.03125 0
0.40625 0.03125 0
0.40625 0 0
0.4375 0 0
0.40625 0.03125 0
0.4375 0.03125 0
0.375 0.03125 0
0.40625 0.03125 0
0.375 0.0625 0
0.40625 0.0625 0
0.40625 0.03125 0
0.4375 0.03125 0
0.40625 0.0625 0
0.4375 0.0625 0
0.4375 0 0
0.46875 0 0
0.4375 0.03125 0
0.46875 0.03125 0
0.46875 0 0
0.5 0 0
0.46875 0.03125 0
0.5 0.03125 0
0.4375 0.03125 0
0.46875 0.03125 0
0.4375 0.0625 0
0.46875 0.0625 0
0.46875 0.03125 0
0.5 0.03125 0
0.46875 0.0625 0
0.5 0.0625 0
0.375 0.0625 0
0.40625 0.0625 0
0.375 0.09375 0
0.40625 0.09375 0
0.40625 0.0625 0
0.4375 0.0625 0
0.40625 0.09375 0
0.4375 0.09375 0
0.375 0.09375 0
0.40625 0.09375 0
0.375 0.125 0
0.40625 0.125 0
0.40625 0.09375 0
0.4375 0.09375 0
0.40625 0.125 0
0.4375 0.125 0
0.4375 0.0625 0
0.46875 0.0625 0
0.4375 0.09375 0
0.46875 0.09375 0
0.46875 0.0625 0
0.5 0.0625 0
0.46875 0.09375 0
0.5 0.09375 0
0.4375 0.09375 0
0.46875 0.09375 0
0.4375 0.125 0
0.46875 0.125 0
0.46875 0.09375 0
0.5 0.09375 0
0.46875 0.125 0
0.5 0.125 0
0.25 0.125 0
0.28125 0.125 0
0.25 0.15625 0
0.28125 0.15625 0
0.28125 0.125 0
0.3125 0.125 0
0.28125 0.15625 0
0.3125 0.15625 0
0.25 0.15625 0
0.28125 0.15625 0
0.25 0.1875 0
0.28125 0.1875 0
0.28125 0.15625 0
0.3125 0.15625 0
0.28125 0.1875 0
0.3125 0.1875 0
0.3125 0.125 0
0.34375 0.125 0
0.3125 0.15625 0
0.34375 0.15625 0
0.34375 0.125 0
0.375 0.125 0
0.34375 0.15625 0
0.375 0.15625 0
0.3125 0.15625 0
0.34375 0.15625 0
0.3125 0.1875 0
0.34375 0.1875 0
0.34375 0.15625 0
0.375 0.15625 0
0.34375 0.1875 0
0.375 0.1875 0
0.25 0.1875 0
0.28125 0.1875 0
0.25 0.21875 0
0.28125 0.21875 0
0.28125 0.1875 0
0.3125 0.1875 0
0.28125 0.21875 0
0.3125 0.21875 0
0.25 0.21875 0
0.28125 0.21875 0
0.25 0.25 0
0.28125 0.25 0
0.28125 0.21875 0
0.3125 0.21875 0
0.28125 0.25 0
0.3125 0.25 0
0.3125 0.1875 0
0.34375 0.1875 0
0.3125 0.21875 0
0.34375 0.21875 0
0.34375 0.1875 0
0.375 0.1875 0
0.34375 0.21875 0
0.375 0.21875 0
0.3125 0.21875 0
0.34375 0.21875 0
0.3125 0.25 0
0.34375 0.25 0
0.34375 0.21875 0
0.375 0.21875 0
0.34375 0.25 0
0.375 0.25 0
0.375 0.125 0
0.40625 0.125 0
0.375 0.15625 0
0.40625 0.15625 0
0.40625 0.125 0
0.4375 0.125 0
0.40625 0.15625 0
0.4375 0.15625 0
0.375 0.15625 0
0.40625 0.15625 0
0.375 0.1875 0
0.40625 0.1875 0
0.40625 0.15625 0
0.4375 0.15625 0
0.40625 0.1875 0
0.4375 0.1875 0
0.4375 0.125 0
0.46875 0.125 0
0.4375 0.15625 0
0.46875 0.15625 0
0.46875 0.125 0
0.5 0.125 0
0.46875 0.15625 0
0.5 0.15625 0
0.4375 0.15625 0
0.46875 0.15625 0
0.4375 0.1875 0
0.46875 0.1875 0
0.46875 0.15625 0
0.5 0.15625 0
0.46875 0.1875 0
0.5 0.1875 0
0.375 0.1875 0
0.40625 0.1875 0
0.375 0.21875 0
0.40625 0.21875 0
0.40625 0.1875 0
0.4375 0.1875 0
0.40625 0.21875 0
0.4375 0.21875 0
0.375 0.21875 0
0.40625 0.21875 0
0.375 0.25 0
0.40625 0.25 0
0.40625 0.21875 0
0.4375 0.21875 0
0.40625 0.25 0
0.4375 0.25 0
0.4375 0.1875 0
0.46875 0.1875 0
0.4375 0.21875 0
0.46875 0.21875 0
0.46875 0.1875 0
0.5 0.1875 0
0.46875 0.21875 0
0.5 0.21875 0
0.4375 0.21875 0
0.46875 0.21875 0
0.4375 0.25 0
0.46875 0.25 0
0.46875 0.21875 0
0.5 0.21875 0
0.46875 0.25 0
0.5 0.25 0
0 0.25 0
0.03125 0.25 0
0 0.28125 0
0.03125 0.28125 0
0.03125 0.25 0
0.0625 0.25 0
0.03125 0.28125 0
0.0625 0.28125 0
0 0.28125 0
0.03125 0.28125 0
0 0.3125 0
0.03125 0.3125 0
0.03125 0.28125 0
0.0625 0.28125 0
0.03125 0.3125 0
0.0625 0.3125 0
0.0625 0.25 0
0.09375 0.25 0
0.0625 0.28125 0
0.09375 0.28125 0
0.09375 0.25 0
0.125 0.25 0
0.09375 0.28125 0
0.125 0.28125 0
0.0625 0.28125 0
0.09375 0.28125 0
0.0625 0.3125 0
0.09375 0.3125 0
0.09375 0.28125 0
0.125 0.28125 0
0.09375 0.3125 0
0.125 0.3125 0
0 0.3125 0
0.03125 0.3125 0
0 0.34375 0
0.03125 0.34375 0
0.03125 0.3125 0
0.0625 0.3125 0
0.03125 0.34375 0
0.0625 0.34375 0
0 0.34375 0
0.03125 0.34375 0
0 0.375 0
0.03125 0.375 0
0.03125 0.34375 0
0.0625 0.34375 0
0.03125 0.375 0
0.0625 0.375 0
0.0625 0.3125 0
0.09375 0.3125 0
0.0625 0.34375 0
0.09375 0.34375 0
0.09375 0.3125 0
0.125 0.3125 0
0.09375 0.34375 0
0.125 0.34375 0
0.0625 0.34375 0
0.09375 0.34375 0
0.0625 0.375 0
0.09375 0.375 0
0.09375 0.34375 0
0.125 0.34375 0
0.09375 0.375 0
0.125 0.375 0
0.125 0.25 0
0.15625 0.25 0
0.125 0.28125 0
0.15625 0.28125 0
0.15625 0.25 0
0.1875 0.25 0
0.15625 0.28125 0
0.1875 0.28125 0
0.125 0.28125 0
0.15625 0.28125 0
0.125 0.3125 0
0.15625 0.3125 0
0.15625 0.28125 0
0.1875 0.28125 0
0.15625 0.3125 0
0.1875 0.3125 0
0.1875 0.25 0
0.21875 0.25 0
0.1875 0.28125 0
0.21875 0.28125 0
0.21875 0.25 0
0.25 0.25 0
0.21875 0.28125 0
0.25 0.28125 0
0.1875 0.28125 0
0.21875 0.28125 0
0.1875 0.3125 0
0.21875 0.3125 0
0.21875 0.28125 0
0.25 0.28125 0
0.21875 0.3125 0
0.25 0.3125 0
0.125 0.3125 0
0.15625 0.3125 0
0.125 0.34375 0
0.15625 0.34375 0
0.15625 0.3125 0
0.1875 0.3125 0
0.15625 0.34375 0
0.1875 0.34375 0
0.125 0.34375 0
[...]
POINT_DATA 4096
SCALARS p double 1
LOOKUP_TABLE default
1.19652e-05 0.000113307 -8.38424e-05 2.1171e-05 0.000113307 0.000357118 2.1171e-05 0.000147987 -8.38424e-05 2.1171e-05 -0.000329231 -0.000106275 2.1171e-05 0.000147987 -0.000106275 2.21444e-05 0.000357118 0.00057368 0.000147987 0.000260209 0.00057368 0.000673261 0.000260209 0.000296877 0.000147987 0.000260209 2.21444e-05 0.000123342 0.000260209 0.000296877 0.000123342 0.000138038 -0.000329231 -0.000106275 -0.000553516 -0.000217325 -0.000106275 2.21444e-05 -0.000217325 -7.10324e-05 -0.000553516 -0.000217325 -0.000667853 -0.000252391 -0.000217325 -7.10324e-05 -0.000252391 -7.26514e-05 2.21444e-05 0.000123342 -7.10324e-05 3.42723e-05 0.000123342 0.000138038 3.42723e-05 4.09469e-05 -7.10324e-05 3.42723e-05 -7.26514e-05 5.08683e-05 3.42723e-05 4.09469e-05 5.08683e-05 6.22046e-05 0.000673261 0.000622505 0.000296877 0.000233741 0.000622505 0.000416373 0.000233741 6.09797e-05 0.000296877 0.000233741 0.000138038 5.29111e-05 0.000233741 6.09797e-05 5.29111e-05 -0.000142291 0.000416373 6.09174e-05 6.09797e-05 -0.000221707 6.09174e-05 -0.000433763 -0.000221707 -0.000610119 6.09797e-05 -0.000221707 -0.000142291 -0.00044942 -0.000221707 -0.000610119 -0.00044942 -0.000866108 0.000138038 5.29111e-05 4.09469e-05 -4.97033e-05 5.29111e-05 -0.000142291 -4.97033e-05 -0.000244263 4.09469e-05 -4.97033e-05 6.22046e-05 -2.8676e-05 -4.97033e-05 -0.000244263 -2.8676e-05 -0.000224598 -0.000142291 -0.00044942 -0.000244263 -0.000543662 -0.00044942 -0.000866108 -0.000543662 -0.000946272 -0.000244263 -0.000543662 -0.000224598 -0.00052475 -0.000543662 -0.000946272 -0.00052475 -0.000927117 -0.000667853 -0.000252391 -0.000635597 -0.000183245 -0.000252391 -7.26514e-05 -0.000183245 3.57611e-05 -0.000635597 -0.000183245 -0.000444088 6.37869e-06 -0.000183245 3.57611e-05 6.37869e-06 0.000272034 -7.26514e-05 5.08683e-05 3.57611e-05 0.000177794 5.08683e-05 6.22046e-05 0.000177794 0.00019861 3.57611e-05 0.000177794 0.000272034 0.00042954 0.000177794 0.00019861 0.00042954 0.000461259 -0.000444088 6.37869e-06 -8.86528e-05 0.000325812 6.37869e-06 0.000272034 0.000325812 0.000648211 -8.86528e-05 0.000325812 0.000434117 0.000782127 0.000325812 0.000648211 0.000782127 0.00117441 0.000272034 0.00042954 0.000648211 0.000817257 0.00042954 0.000461259 0.000817257 0.000859629 0.000648211 0.000817257 0.00117441 0.00135159 0.000817257 0.000859629 0.00135159 0.00140393 6.22046e-05 -2.8676e-05 0.00019861 0.000110855 -2.8676e-05 -0.000224598 0.000110855 -8.51327e-05 0.00019861 0.000110855 0.000461259 0.000377013 0.000110855 -8.51327e-05 0.000377013 0.000179816 -0.000224598 -0.00052475 -8.51327e-05 -0.00038698 -0.00052475 -0.000927117 -0.00038698 -0.000792001 -8.51327e-05 -0.00038698 0.000179816 -0.000126895 -0.00038698 -0.000792001 -0.000126895 -0.000539725 0.000461259 0.000377013 0.000859629 0.000777707 0.000377013 0.000179816 0.000777707 0.000577109 0.000859629 0.000777707 0.00140393 0.00132234 0.000777707 0.000577109 0.00132234 0.00111534 0.000179816 -0.000126895 0.000577109 0.000261822 -0.000126895 -0.000539725 0.000261822 -0.000164116 0.000577109 0.000261822 0.00111534 0.000787158 0.000261822 -0.000164116 0.000787158 0.000342373 -0.000433763 -0.00105663 -0.000610119 -0.00109791 -0.00105663 -0.00179656 -0.00109791 -0.00167758 -0.000610119 -0.00109791 -0.000866108 -0.00138726 -0.00109791 -0.00167758 -0.00138726 -0.00200596 -0.00179656 -0.0026423 -0.00167758 -0.00234079 -0.0026423 -0.00358202 -0.00234079 -0.00307834 -0.00167758 -0.00234079 -0.00200596 -0.00271401 -0.00234079 -0.00307834 -0.00271401 -0.00350186 -0.000866108 -0.00138726 -0.000946272 -0.00144814 -0.00138726 -0.00200596 -0.00144814 -0.00204344 -0.000946272 -0.00144814 -0.000927117 -0.00142797 -0.00144814 -0.00204344 -0.00142797 -0.00202196 -0.00200596 -0.00271401 -0.00204344 -0.0027249 -0.00271401 -0.00350186 -0.0027249 -0.00348378 -0.00204344 -0.0027249 -0.00202196 -0.00270229 -0.0027249 -0.00348378 -0.00270229 -0.00346066 -0.00358202 -0.00460299 -0.00307834 -0.00388018 -0.00460299 -0.00569131 -0.00388018 -0.00473525 -0.00307834 -0.00388018 -0.00350186 -0.00435893 -0.00388018 -0.00473525 -0.00435893 -0.00527342 -0.00569131 -0.00683177 -0.00473525 -0.00563145 -0.00683177 -0.00800785 -0.00563145 -0.00655556 -0.00473525 -0.00563145 -0.00527342 -0.00623232 -0.00563145 -0.00655556 -0.00623232 -0.00722142 -0.00350186 -0.00435893 -0.00348378 -0.00431018 -0.00435893 -0.00527342 -0.00431018 -0.00519289 -0.00348378 -0.00431018 -0.00346066 -0.00428749 -0.00431018 -0.00519289 -0.00428749 -0.00517179 -0.00527342 -0.00623232 -0.00519289 -0.00611942 -0.00623232 -0.00722142 -0.00611942 -0.00707603 -0.00519289 -0.00611942 -0.00517179 -0.00610125 -0.00611942 -0.00707603 -0.00610125 -0.00706217 -0.000927117 -0.00142797 -0.000792001 -0.0012963 -0.00142797 -0.00202196 -0.0012963 -0.00189474 -0.000792001 -0.0012963 -0.000539725 -0.00105453 -0.0012963 -0.00189474 -0.00105453 -0.00166614 -0.00202196 -0.00270229 -0.00189474 -0.00258081 -0.00270229 -0.00346066 -0.00258081 -0.00334656 -0.00189474 -0.00258081 -0.00166614 -0.00236819 -0.00258081 -0.00334656 -0.00236819 -0.00315292 -0.000539725 -0.00105453 -0.000164116 -0.000696284 -0.00105453 -0.00166614 -0.000696284 -0.00132944 -0.000164116 -0.000696284 0.000342373 -0.000214355 -0.000696284 -0.00132944 -0.000214355 -0.000877676 -0.00166614 -0.00236819 -0.00132944 -0.00205727 -0.00236819 -0.00315292 -0.00205727 -0.0028721 -0.00132944 -0.00205727 -0.000877676 -0.00164127 -0.00205727 -0.0028721 -0.00164127 -0.00249751 -0.00346066 -0.00428749 -0.00334656 -0.00418266 -0.00428749 -0.00517179 -0.00418266 -0.00507825 -0.00334656 -0.00418266 -0.00315292 -0.00401118 -0.00418266 -0.00507825 -0.00401118 -0.00493212 -0.00517179 -0.00610125 -0.00507825 -0.00602112 -0.00610125 -0.00706217 -0.00602112 -0.00699761 -0.00507825 -0.00602112 -0.00493212 -0.00590349 -0.00602112 -0.00699761 -0.00590349 -0.00691149 -0.00315292 -0.00401118 -0.0028721 -0.00376479 -0.00401118 -0.00493212 -0.00376479 -0.00472454 -0.0028721 -0.00376479 -0.00249751 -0.00343722 -0.00376479 -0.00472454 -0.00343722 -0.00444958 -0.00493212 -0.00590349 -0.00472454 -0.00573897 -0.00590349 -0.00691149 -0.00573897 -0.006794 -0.00472454 -0.00573897 -0.00444958 -0.00552206 -0.00573897 -0.006794 -0.00552206 -0.00664021 0.000434117 0.000782127 0.00112962 0.00138271 0.000782127 0.00117441 0.00138271 0.00186079 0.00112962 0.00138271 0.00200651 0.00213667 0.00138271 0.00186079 0.00213667 0.0027189 0.00117441 0.00135159 0.00186079 0.00204351 0.00135159 0.00140393 0.00204351 0.00210533 0.00186079 0.00204351 0.0027189 0.00290531 0.00204351 0.00210533 0.00290531 0.00297648 0.00200651 0.00213667 0.00307703 0.00305548 0.00213667 0.0027189 0.00305548 0.00376252 0.00307703 0.00305548 0.00435716 0.00415342 0.00305548 0.00376252 0.00415342 0.00500844 0.0027189 0.00290531 0.00376252 0.00395137 0.00290531 0.00297648 0.00395137 0.00403217 0.00376252 0.00395137 0.00500844 0.00519893 0.00395137 0.00403217 0.00519893 0.00529003 0.00140393 0.00132234 0.00210533 0.00202179 0.00132234 0.00111534 0.00202179 0.00180495 0.00210533 0.00202179 0.00297648 0.0028887 0.00202179 0.00180495 0.0028887 0.00265847 0.00111534 0.000787158 0.00180495 0.00145917 0.000787158 0.000342373 0.00145917 0.000989515 0.00180495 0.00145917 0.00265847 0.00229016 0.00145917 0.000989515 0.00229016 0.00178944 0.00297648 0.0028887 0.00403217 0.003938 0.0028887 0.00265847 0.003938 0.00369074 0.00403217 0.003938 0.00529003 0.00518736 0.003938 0.00369074 0.00518736 0.00491939 0.00265847 0.00229016 0.00369074 0.0032949 0.00229016 0.00178944 0.0032949 0.00275685 0.00369074 0.0032949 0.00491939 0.00449092 0.0032949 0.00275685 0.00449092 0.00390919 0.00435716 0.00415342 0.00586666 0.005448 0.00415342 0.00500844 0.005448 0.00647697 0.00586666 0.005448 0.00762938 0.00696043 0.005448 0.00647697 0.00696043 0.00819265 0.00500844 0.00519893 0.00647697 0.00666858 0.00519893 0.00529003 0.00666858 0.00677095 0.00647697 0.00666858 0.00819265 0.00838515 0.00666858 0.00677095 0.00838515 0.00849992 0.00762938 0.00696043 0.00967379 0.0087162 0.00696043 0.00819265 0.0087162 0.0101851 0.00967379 0.0087162 0.0120338 0.0107461 0.0087162 0.0101851 0.0107461 0.0124901 0.00819265 0.00838515 0.0101851 0.0103784 0.00838515 0.00849992 0.0103784 0.0105067 0.0101851 0.0103784 0.0124901 0.0126843 0.0103784 0.0105067 0.0126843 0.0128271 0.00529003 0.00518736 0.00677095 0.00665765 0.00518736 0.00491939 0.00665765 0.00636519 0.00677095 0.00665765 0.00849992 0.00837364 0.00665765 0.00636519 0.00837364 0.0080525 0.00491939 0.00449092 0.00636519 0.00589882 0.00449092 0.00390919 0.00589882 0.00526692 0.00636519 0.00589882 0.0080525 0.00754256 0.00589882 0.00526692 0.00754256 0.00685373 0.00849992 0.00837364 0.0105067 0.0103645 0.00837364 0.0080525 0.0103645 0.0100098 0.0105067 0.0103645 0.0128271 0.0126651 0.0103645 0.0100098 0.0126651 0.0122706 0.0080525 0.00754256 0.0100098 0.00944992 0.00754256 0.00685373 0.00944992 0.00869681 0.0100098 0.00944992 0.0122706 0.0116531 0.00944992 0.00869681 0.0116531 0.0108273 0.000342373 -0.000214355 0.000989515 0.000400874 -0.000214355 -0.000877676 0.000400874 -0.00030132 0.000989515 0.000400874 0.00178944 0.00116143 0.000400874 -0.00030132 0.00116143 0.00041164 -0.000877676 -0.00164127 -0.00030132 -0.00111072 -0.00164127 -0.00249751 -0.00111072 -0.00201971 -0.00030132 -0.00111072 0.00041164 -0.000453605 -0.00111072 -0.00201971 -0.000453605 -0.0014267 0.00178944 0.00116143 0.00275685 0.00208197 0.00116143 0.00041164 0.00208197 0.00127585 0.00275685 0.00208197 0.00390919 0.00317991 0.00208197 0.00127585 0.00317991 0.0023088 0.00041164 -0.000453605 0.00127585 0.000344784 -0.000453605 -0.0014267 0.000344784 -0.000703705 0.00127585 0.000344784 0.0023088 0.00130209 0.000344784 -0.000703705 0.00130209 0.000167103 -0.00249751 -0.00343722 -0.00201971 -0.00301913 -0.00343722 -0.00444958 -0.00301913 -0.0040981 -0.00201971 -0.00301913 -0.0014267 -0.00249854 -0.00301913 -0.0040981 -0.00249854 -0.00365825 -0.00444958 -0.00552206 -0.0040981 -0.00524389 -0.00552206 -0.00664021 -0.00524389 -0.00644168 -0.0040981 -0.00524389 -0.00365825 -0.00489292 -0.00524389 -0.00644168 -0.00489292 -0.0061874 -0.0014267 -0.00249854 -0.000703705 -0.00186064 -0.00249854 -0.00365825 -0.00186064 -0.00311524 -0.000703705 -0.00186064 0.000167103 -0.00108745 -0.00186064 -0.00311524 -0.00108745 -0.00245098 -0.00365825 -0.00489292 -0.00311524 -0.00445454 -0.00489292 -0.0061874 -0.00445454 -0.00586316 -0.00311524 -0.00445454 -0.00245098 -0.00391065 -0.00445454 -0.00586316 -0.00391065 -0.00545114 0.00390919 0.00317991 0.00526692 0.00447568 0.00317991 0.0023088 0.00447568 0.00353099 0.00526692 0.00447568 0.00685373 0.00599283 0.00447568 0.00353099 0.00599283 0.00496599 0.0023088 0.00130209 0.00353099 0.00243896 0.00130209 0.000167103 0.00243896 0.00120663 0.00353099 0.00243896 0.00496599 0.0037792 0.00243896 0.00120663 0.0037792 0.00243909 0.00685373 0.00599283 0.00869681 0.0077582 0.00599283 0.00496599 0.0077582 0.00664052 0.00869681 0.0077582 0.0108273 0.00980207 0.0077582 0.00664052 0.00980207 0.00858447 0.00496599 0.0037792 0.00664052 0.0053497 0.0037792 0.00243909 0.0053497 0.00389187 0.00664052 0.0053497 0.00858447 0.00718032 0.0053497 0.00389187 0.00718032 0.00559531 0.000167103 -0.00108745 0.00120663 -0.00015767 -0.00108745 -0.00245098 -0.00015767 -0.00164379 0.00120663 -0.00015767 0.00243909 0.000953459 -0.00015767 -0.00164379 0.000953459 -0.00066827 -0.00245098 -0.00391065 -0.00164379 -0.00323934 -0.00391065 -0.00545114 -0.00323934 -0.00492931 -0.00164379 -0.00323934 -0.00066827 -0.00241449 -0.00323934 -0.00492931 -0.00241449 -0.00427098 0.00243909 0.000953459 0.00389187 0.00227412 0.000953459 -0.00066827 0.00227412 0.000504858 0.00389187 0.00227412 0.00559531 0.0038356 0.00227412 0.000504858 0.0038356 0.00190834 -0.00066827 -0.00241449 0.000504858 -0.00140557 -0.00241449 -0.00427098 -0.00140557 -0.00344434 0.000504858 -0.00140557 0.00190834 -0.000177881 -0.00140557 -0.00344434 -0.000177881 -0.00241235 -0.00800785 -0.00920173 -0.00655556 -0.00749336 -0.00920173 -0.0103945 -0.00749336 -0.00842984 -0.00655556 -0.00749336 -0.00722142 -0.00822536 -0.00749336 -0.00842984 -0.00822536 -0.00922795 -0.0103945 -0.0115663 -0.00842984 -0.00934924 -0.0115663 -0.0126965 -0.00934924 -0.0102353 -0.00842984 -0.00934924 -0.00922795 -0.0102122 -0.00934924 -0.0102353 -0.0102122 -0.0111605 -0.00722142 -0.00822536 -0.00707603 -0.00804786 -0.00822536 -0.00922795 -0.00804786 -0.00901913 -0.00707603 -0.00804786 -0.00706217 -0.00803971 -0.00804786 -0.00901913 -0.00803971 -0.00901792 -0.00922795 -0.0102122 -0.00901913 -0.00997325 -0.0102122 -0.0111605 -0.00997325 -0.0108931 -0.00901913 -0.00997325 -0.00901792 -0.00998005 -0.00997325 -0.0108931 -0.00998005 -0.0109087 -0.0126965 -0.0137643 -0.0102353 -0.0110715 -0.0137643 -0.0147485 -0.0110715 -0.0118413 -0.0102353 -0.0110715 -0.0111605 -0.0120552 -0.0110715 -0.0118413 -0.0120552 -0.0128787 -0.0147485 -0.0156282 -0.0118413 -0.0125286 -0.0156282 -0.016383 -0.0125286 -0.0131182 -0.0118413 -0.0125286 -0.0128787 -0.0136139 -0.0125286 -0.0131182 -0.0136139 -0.0142453 -0.0111605 -0.0120552 -0.0108931 -0.0117614 -0.0120552 -0.0128787 -0.0117614 -0.0125609 -0.0108931 -0.0117614 -0.0109087 -0.0117862 -0.0117614 -0.0125609 -0.0117862 -0.0125951 -0.0128787 -0.0136139 -0.0125609 -0.0132753 -0.0136139 -0.0142453 -0.0132753 -0.0138897 -0.0125609 -0.0132753 -0.0125951 -0.0133188 -0.0132753 -0.0138897 -0.0133188 -0.0139419 -0.00706217 -0.00803971 -0.00699761 -0.00799273 -0.00803971 -0.00901792 -0.00799273 -0.00899029 -0.00699761 -0.00799273 -0.00691149 -0.00794089 -0.00799273 -0.00899029 -0.00794089 -0.00897501 -0.00901792 -0.00998005 -0.00899029 -0.00997313 -0.00998005 -0.0109087 -0.00997313 -0.0109233 -0.00899029 -0.00997313 -0.00897501 -0.009996 -0.00997313 -0.0109233 -0.009996 -0.0109851 -0.00691149 -0.00794089 -0.006794 -0.00787398 -0.00794089 -0.00897501 -0.00787398 -0.00896156 -0.006794 -0.00787398 -0.00664021 -0.0077878 -0.00787398 -0.00896156 -0.0077878 -0.00894665 -0.00897501 -0.009996 -0.00896156 -0.010038 -0.009996 -0.0109851 -0.010038 -0.0110834 -0.00896156 -0.010038 -0.00894665 -0.0100969 -0.010038 -0.0110834 -0.0100969 -0.0112172 -0.0109087 -0.0117862 -0.0109233 -0.0118226 -0.0117862 -0.0125951 -0.0118226 -0.0126529 -0.0109233 -0.0118226 -0.0109851 -0.0119231 -0.0118226 -0.0126529 -0.0119231 -0.0127906 -0.0125951 -0.0133188 -0.0126529 -0.0133966 -0.0133188 -0.0139419 -0.0133966 -0.0140376 -0.0126529 -0.0133966 -0.0127906 -0.0135689 -0.0133966 -0.0140376 -0.0135689 -0.0142404 -0.0109851 -0.0119231 -0.0110834 -0.012077 -0.0119231 -0.0127906 -0.012077 -0.012998 -0.0110834 -0.012077 -0.0112172 -0.012285 -0.012077 -0.012998 -0.012285 -0.0132772 -0.0127906 -0.0135689 -0.012998 -0.0138256 -0.0135689 -0.0142404 -0.0138256 -0.0145406 -0.012998 -0.0138256 -0.0132772 -0.0141707 -0.0138256 -0.0145406 -0.0141707 -0.0149438 -0.016383 -0.0169933 -0.0131182 -0.0135963 -0.0169933 -0.0174411 -0.0135963 -0.0139518 -0.0131182 -0.0135963 -0.0142453 -0.014759 -0.0135963 -0.0139518 -0.014759 -0.0151449 -0.0174411 -0.0177139 -0.0139518 -0.0141753 -0.0177139 -0.017797 -0.0141753 -0.0142815 -0.0139518 -0.0141753 -0.0151449 -0.0153955 -0.0141753 -0.0142815 -0.0153955 -0.0155242 -0.0142453 -0.014759 -0.0138897 -0.014391 -0.014759 -0.0151449 -0.014391 -0.0147702 -0.0138897 -0.014391 -0.0139419 -0.0144512 -0.014391 -0.0147702 -0.0144512 -0.0148371 -0.0151449 -0.0153955 -0.0147702 -0.0150199 -0.0153955 -0.0155242 -0.0150199 -0.0151534 -0.0147702 -0.0150199 -0.0148371 -0.0150917 -0.0150199 -0.0151534 -0.0150917 -0.0152261 -0.017797 -0.0177396 -0.0142815 -0.0142055 -0.0177396 -0.0175194 -0.0142055 -0.0143806 -0.0142815 -0.0142055 -0.0155242 -0.0154772 -0.0142055 -0.0143806 -0.0154772 -0.0156441 -0.0175194 -0.0164341 -0.0143806 -0.0128382 -0.0164341 -0.0179075 -0.0128382 -0.0162236 -0.0143806 -0.0128382 -0.0156441 -0.0141153 -0.0128382 -0.0162236 -0.0141153 -0.0167945 -0.0155242 -0.0154772 -0.0151534 -0.0151101 -0.0154772 -0.0156441 -0.0151101 -0.0152836 -0.0151534 -0.0151101 -0.0152261 -0.0151774 -0.0151101 -0.0152836 -0.0151774 -0.015327 -0.0156441 -0.0141153 -0.0152836 -0.0137145 -0.0141153 -0.0167945 -0.0137145 -0.0165613 -0.0152836 -0.0137145 -0.015327 -0.0137274 -0.0137145 -0.0165613 -0.0137274 -0.0164109 -0.0139419 -0.0144512 -0.0140376 -0.0145619 -0.0144512 -0.0148371 -0.0145619 -0.014959 -0.0140376 -0.0145619 -0.0142404 -0.0147896 -0.0145619 -0.014959 -0.0147896 -0.0152048 -0.0148371 -0.0150917 -0.014959 -0.0152195 -0.0150917 -0.0152261 -0.0152195 -0.0153529 -0.014959 -0.0152195 -0.0152048 -0.0154751 -0.0152195 -0.0153529 -0.0154751 -0.0156088 -0.0142404 -0.0147896 -0.0145406 -0.0151255 -0.0147896 -0.0152048 -0.0151255 -0.0155667 -0.0145406 -0.0151255 -0.0149438 -0.0155767 -0.0151255 -0.0155667 -0.0155767 -0.0160535 -0.0152048 -0.0154751 -0.0155667 -0.015852 -0.0154751 -0.0156088 -0.015852 -0.0159888 -0.0155667 -0.015852 -0.0160535 -0.0163603 -0.015852 -0.0159888 -0.0163603 -0.0165041 -0.0152261 -0.0151774 -0.0153529 -0.0152934 -0.0151774 -0.015327 -0.0152934 -0.0154215 -0.0153529 -0.0152934 -0.0156088 -0.0155378 -0.0152934 -0.0154215 -0.0155378 -0.0156467 -0.015327 -0.0137274 -0.0154215 -0.0137775 -0.0137274 -0.0164109 -0.0137775 -0.0164377 -0.0154215 -0.0137775 -0.0156467 -0.013954 -0.0137775 -0.0164377 -0.013954 -0.0166079 -0.0156088 -0.0155378 -0.0159888 -0.0159072 -0.0155378 -0.0156467 -0.0159072 -0.0160004 -0.0159888 -0.0159072 -0.0165041 -0.0164131 -0.0159072 -0.0160004 -0.0164131 -0.0164932 -0.0156467 -0.013954 -0.0160004 -0.0142484 -0.013954 -0.0166079 -0.0142484 -0.0169296 -0.0160004 -0.0142484 -0.0164932 -0.0146684 -0.0142484 -0.0169296 -0.0146684 -0.0174016 -0.00664021 -0.0077878 -0.00644168 -0.00767458 -0.0077878 -0.00894665 -0.00767458 -0.00892347 -0.00644168 -0.00767458 -0.0061874 -0.0075241 -0.00767458 -0.00892347 -0.0075241 -0.00888295 -0.00894665 -0.0100969 -0.00892347 -0.0101672 -0.0100969 -0.0112172 -0.0101672 -0.0113825 -0.00892347 -0.0101672 -0.00888295 -0.0102413 -0.0101672 -0.0113825 -0.0102413 -0.0115738 -0.0061874 -0.0075241 -0.00586316 -0.00732294 -0.0075241 -0.00888295 -0.00732294 -0.00881286 -0.00586316 -0.00732294 -0.00545114 -0.00705391 -0.00732294 -0.00881286 -0.00705391 -0.00869715 -0.00888295 -0.0102413 -0.00881286 -0.0103086 -0.0102413 -0.0115738 -0.0103086 -0.0117827 -0.00881286 -0.0103086 -0.00869715 -0.010355 -0.0103086 -0.0117827 -0.010355 -0.0119976 -0.0112172 -0.012285 -0.0113825 -0.0125447 -0.012285 -0.0132772 -0.0125447 -0.0136279 -0.0113825 -0.0125447 -0.0115738 -0.012853 -0.0125447 -0.0136279 -0.012853 -0.0140499 -0.0132772 -0.0141707 -0.0136279 -0.0146062 -0.0141707 -0.0149438 -0.0146062 -0.0154544 -0.0136279 -0.0146062 -0.0140499 -0.0151345 -0.0146062 -0.0154544 -0.0151345 -0.0160777 -0.0115738 -0.012853 -0.0117827 -0.0132046 -0.012853 -0.0140499 -0.0132046 -0.014541 -0.0117827 -0.0132046 -0.0119976 -0.0135909 -0.0132046 -0.014541 -0.0135909 -0.015097 -0.0140499 -0.0151345 -0.014541 -0.0157574 -0.0151345 -0.0160777 -0.0157574 -0.0168194 -0.014541 -0.0157574 -0.015097 -0.0164754 -0.0157574 -0.0168194 -0.0164754 -0.0176851 -0.00545114 -0.00705391 -0.00492931 -0.00669526 -0.00705391 -0.00869715 -0.00669526 -0.00851488 -0.00492931 -0.00669526 -0.00427098 -0.00621997 -0.00669526 -0.00851488 -0.00621997 -0.00823933 -0.00869715 -0.010355 -0.00851488 -0.0103611 -0.010355 -0.0119976 -0.0103611 -0.0122018 -0.00851488 -0.0103611 -0.00823933 -0.0103013 -0.0103611 -0.0122018 -0.0103013 -0.012372 -0.00427098 -0.00621997 -0.00344434 -0.00559509 -0.00621997 -0.00823933 -0.00559509 -0.00783681 -0.00344434 -0.00559509 -0.00241235 -0.00478113 -0.00559509 -0.00783681 -0.00478113 -0.00726563 -0.00823933 -0.0103013 -0.00783681 -0.0101422 -0.0103013 -0.012372 -0.0101422 -0.0124763 -0.00783681 -0.0101422 -0.00726563 -0.0098406 -0.0101422 -0.0124763 -0.0098406 -0.0124717 -0.0119976 -0.0135909 -0.0122018 -0.0139991 -0.0135909 -0.015097 -0.0139991 -0.0157098 -0.0122018 -0.0139991 -0.012372 -0.0144097 -0.0139991 -0.0157098 -0.0144097 -0.0163656 -0.015097 -0.016