# vtk DataFile Version 3.0
#This file was generated by the deal.II library on 2026/1/5 at 14:19:28
ASCII
DATASET UNSTRUCTURED_GRID

POINTS 4096 double
0 0 0
0.03125 0 0
0 0.03125 0
0.03125 0.03125 0
0.03125 0 0
0.0625 0 0
0.03125 0.03125 0
0.0625 0.03125 0
0 0.03125 0
0.03125 0.03125 0
0 0.0625 0
0.03125 0.0625 0
0.03125 0.03125 0
0.0625 0.03125 0
0.03125 0.0625 0
0.0625 0.0625 0
0.0625 0 0
0.09375 0 0
0.0625 0.03125 0
0.09375 0.03125 0
0.09375 0 0
0.125 0 0
0.09375 0.03125 0
0.125 0.03125 0
0.0625 0.03125 0
0.09375 0.03125 0
0.0625 0.0625 0
0.09375 0.0625 0
0.09375 0.03125 0
0.125 0.03125 0
0.09375 0.0625 0
0.125 0.0625 0
0 0.0625 0
0.03125 0.0625 0
0 0.09375 0
0.03125 0.09375 0
0.03125 0.0625 0
0.0625 0.0625 0
0.03125 0.09375 0
0.0625 0.09375 0
0 0.09375 0
0.03125 0.09375 0
0 0.125 0
0.03125 0.125 0
0.03125 0.09375 0
0.0625 0.09375 0
0.03125 0.125 0
0.0625 0.125 0
0.0625 0.0625 0
0.09375 0.0625 0
0.0625 0.09375 0
0.09375 0.09375 0
0.09375 0.0625 0
0.125 0.0625 0
0.09375 0.09375 0
0.125 0.09375 0
0.0625 0.09375 0
0.09375 0.09375 0
0.0625 0.125 0
0.09375 0.125 0
0.09375 0.09375 0
0.125 0.09375 0
0.09375 0.125 0
0.125 0.125 0
0.125 0 0
0.15625 0 0
0.125 0.03125 0
0.15625 0.03125 0
0.15625 0 0
0.1875 0 0
0.15625 0.03125 0
0.1875 0.03125 0
0.125 0.03125 0
0.15625 0.03125 0
0.125 0.0625 0
0.15625 0.0625 0
0.15625 0.03125 0
0.1875 0.03125 0
0.15625 0.0625 0
0.1875 0.0625 0
0.1875 0 0
0.21875 0 0
0.1875 0.03125 0
0.21875 0.03125 0
0.21875 0 0
0.25 0 0
0.21875 0.03125 0
0.25 0.03125 0
0.1875 0.03125 0
0.21875 0.03125 0
0.1875 0.0625 0
0.21875 0.0625 0
0.21875 0.03125 0
0.25 0.03125 0
0.21875 0.0625 0
0.25 0.0625 0
0.125 0.0625 0
0.15625 0.0625 0
0.125 0.09375 0
0.15625 0.09375 0
0.15625 0.0625 0
0.1875 0.0625 0
0.15625 0.09375 0
0.1875 0.09375 0
0.125 0.09375 0
0.15625 0.09375 0
0.125 0.125 0
0.15625 0.125 0
0.15625 0.09375 0
0.1875 0.09375 0
0.15625 0.125 0
0.1875 0.125 0
0.1875 0.0625 0
0.21875 0.0625 0
0.1875 0.09375 0
0.21875 0.09375 0
0.21875 0.0625 0
0.25 0.0625 0
0.21875 0.09375 0
0.25 0.09375 0
0.1875 0.09375 0
0.21875 0.09375 0
0.1875 0.125 0
0.21875 0.125 0
0.21875 0.09375 0
0.25 0.09375 0
0.21875 0.125 0
0.25 0.125 0
0 0.125 0
0.03125 0.125 0
0 0.15625 0
0.03125 0.15625 0
0.03125 0.125 0
0.0625 0.125 0
0.03125 0.15625 0
0.0625 0.15625 0
0 0.15625 0
0.03125 0.15625 0
0 0.1875 0
0.03125 0.1875 0
0.03125 0.15625 0
0.0625 0.15625 0
0.03125 0.1875 0
0.0625 0.1875 0
0.0625 0.125 0
0.09375 0.125 0
0.0625 0.15625 0
0.09375 0.15625 0
0.09375 0.125 0
0.125 0.125 0
0.09375 0.15625 0
0.125 0.15625 0
0.0625 0.15625 0
0.09375 0.15625 0
0.0625 0.1875 0
0.09375 0.1875 0
0.09375 0.15625 0
0.125 0.15625 0
0.09375 0.1875 0
0.125 0.1875 0
0 0.1875 0
0.03125 0.1875 0
0 0.21875 0
0.03125 0.21875 0
0.03125 0.1875 0
0.0625 0.1875 0
0.03125 0.21875 0
0.0625 0.21875 0
0 0.21875 0
0.03125 0.21875 0
0 0.25 0
0.03125 0.25 0
0.03125 0.21875 0
0.0625 0.21875 0
0.03125 0.25 0
0.0625 0.25 0
0.0625 0.1875 0
0.09375 0.1875 0
0.0625 0.21875 0
0.09375 0.21875 0
0.09375 0.1875 0
0.125 0.1875 0
0.09375 0.21875 0
0.125 0.21875 0
0.0625 0.21875 0
0.09375 0.21875 0
0.0625 0.25 0
0.09375 0.25 0
0.09375 0.21875 0
0.125 0.21875 0
0.09375 0.25 0
0.125 0.25 0
0.125 0.125 0
0.15625 0.125 0
0.125 0.15625 0
0.15625 0.15625 0
0.15625 0.125 0
0.1875 0.125 0
0.15625 0.15625 0
0.1875 0.15625 0
0.125 0.15625 0
0.15625 0.15625 0
0.125 0.1875 0
0.15625 0.1875 0
0.15625 0.15625 0
0.1875 0.15625 0
0.15625 0.1875 0
0.1875 0.1875 0
0.1875 0.125 0
0.21875 0.125 0
0.1875 0.15625 0
0.21875 0.15625 0
0.21875 0.125 0
0.25 0.125 0
0.21875 0.15625 0
0.25 0.15625 0
0.1875 0.15625 0
0.21875 0.15625 0
0.1875 0.1875 0
0.21875 0.1875 0
0.21875 0.15625 0
0.25 0.15625 0
0.21875 0.1875 0
0.25 0.1875 0
0.125 0.1875 0
0.15625 0.1875 0
0.125 0.21875 0
0.15625 0.21875 0
0.15625 0.1875 0
0.1875 0.1875 0
0.15625 0.21875 0
0.1875 0.21875 0
0.125 0.21875 0
0.15625 0.21875 0
0.125 0.25 0
0.15625 0.25 0
0.15625 0.21875 0
0.1875 0.21875 0
0.15625 0.25 0
0.1875 0.25 0
0.1875 0.1875 0
0.21875 0.1875 0
0.1875 0.21875 0
0.21875 0.21875 0
0.21875 0.1875 0
0.25 0.1875 0
0.21875 0.21875 0
0.25 0.21875 0
0.1875 0.21875 0
0.21875 0.21875 0
0.1875 0.25 0
0.21875 0.25 0
0.21875 0.21875 0
0.25 0.21875 0
0.21875 0.25 0
0.25 0.25 0
0.25 0 0
0.28125 0 0
0.25 0.03125 0
0.28125 0.03125 0
0.28125 0 0
0.3125 0 0
0.28125 0.03125 0
0.3125 0.03125 0
0.25 0.03125 0
0.28125 0.03125 0
0.25 0.0625 0
0.28125 0.0625 0
0.28125 0.03125 0
0.3125 0.03125 0
0.28125 0.0625 0
0.3125 0.0625 0
0.3125 0 0
0.34375 0 0
0.3125 0.03125 0
0.34375 0.03125 0
0.34375 0 0
0.375 0 0
0.34375 0.03125 0
0.375 0.03125 0
0.3125 0.03125 0
0.34375 0.03125 0
0.3125 0.0625 0
0.34375 0.0625 0
0.34375 0.03125 0
0.375 0.03125 0
0.34375 0.0625 0
0.375 0.0625 0
0.25 0.0625 0
0.28125 0.0625 0
0.25 0.09375 0
0.28125 0.09375 0
0.28125 0.0625 0
0.3125 0.0625 0
0.28125 0.09375 0
0.3125 0.09375 0
0.25 0.09375 0
0.28125 0.09375 0
0.25 0.125 0
0.28125 0.125 0
0.28125 0.09375 0
0.3125 0.09375 0
0.28125 0.125 0
0.3125 0.125 0
0.3125 0.0625 0
0.34375 0.0625 0
0.3125 0.09375 0
0.34375 0.09375 0
0.34375 0.0625 0
0.375 0.0625 0
0.34375 0.09375 0
0.375 0.09375 0
0.3125 0.09375 0
0.34375 0.09375 0
0.3125 0.125 0
0.34375 0.125 0
0.34375 0.09375 0
0.375 0.09375 0
0.34375 0.125 0
0.375 0.125 0
0.375 0 0
0.40625 0 0
0.375 0.03125 0
0.40625 0.03125 0
0.40625 0 0
0.4375 0 0
0.40625 0.03125 0
0.4375 0.03125 0
0.375 0.03125 0
0.40625 0.03125 0
0.375 0.0625 0
0.40625 0.0625 0
0.40625 0.03125 0
0.4375 0.03125 0
0.40625 0.0625 0
0.4375 0.0625 0
0.4375 0 0
0.46875 0 0
0.4375 0.03125 0
0.46875 0.03125 0
0.46875 0 0
0.5 0 0
0.46875 0.03125 0
0.5 0.03125 0
0.4375 0.03125 0
0.46875 0.03125 0
0.4375 0.0625 0
0.46875 0.0625 0
0.46875 0.03125 0
0.5 0.03125 0
0.46875 0.0625 0
0.5 0.0625 0
0.375 0.0625 0
0.40625 0.0625 0
0.375 0.09375 0
0.40625 0.09375 0
0.40625 0.0625 0
0.4375 0.0625 0
0.40625 0.09375 0
0.4375 0.09375 0
0.375 0.09375 0
0.40625 0.09375 0
0.375 0.125 0
0.40625 0.125 0
0.40625 0.09375 0
0.4375 0.09375 0
0.40625 0.125 0
0.4375 0.125 0
0.4375 0.0625 0
0.46875 0.0625 0
0.4375 0.09375 0
0.46875 0.09375 0
0.46875 0.0625 0
0.5 0.0625 0
0.46875 0.09375 0
0.5 0.09375 0
0.4375 0.09375 0
0.46875 0.09375 0
0.4375 0.125 0
0.46875 0.125 0
0.46875 0.09375 0
0.5 0.09375 0
0.46875 0.125 0
0.5 0.125 0
0.25 0.125 0
0.28125 0.125 0
0.25 0.15625 0
0.28125 0.15625 0
0.28125 0.125 0
0.3125 0.125 0
0.28125 0.15625 0
0.3125 0.15625 0
0.25 0.15625 0
0.28125 0.15625 0
0.25 0.1875 0
0.28125 0.1875 0
0.28125 0.15625 0
0.3125 0.15625 0
0.28125 0.1875 0
0.3125 0.1875 0
0.3125 0.125 0
0.34375 0.125 0
0.3125 0.15625 0
0.34375 0.15625 0
0.34375 0.125 0
0.375 0.125 0
0.34375 0.15625 0
0.375 0.15625 0
0.3125 0.15625 0
0.34375 0.15625 0
0.3125 0.1875 0
0.34375 0.1875 0
0.34375 0.15625 0
0.375 0.15625 0
0.34375 0.1875 0
0.375 0.1875 0
0.25 0.1875 0
0.28125 0.1875 0
0.25 0.21875 0
0.28125 0.21875 0
0.28125 0.1875 0
0.3125 0.1875 0
0.28125 0.21875 0
0.3125 0.21875 0
0.25 0.21875 0
0.28125 0.21875 0
0.25 0.25 0
0.28125 0.25 0
0.28125 0.21875 0
0.3125 0.21875 0
0.28125 0.25 0
0.3125 0.25 0
0.3125 0.1875 0
0.34375 0.1875 0
0.3125 0.21875 0
0.34375 0.21875 0
0.34375 0.1875 0
0.375 0.1875 0
0.34375 0.21875 0
0.375 0.21875 0
0.3125 0.21875 0
0.34375 0.21875 0
0.3125 0.25 0
0.34375 0.25 0
0.34375 0.21875 0
0.375 0.21875 0
0.34375 0.25 0
0.375 0.25 0
0.375 0.125 0
0.40625 0.125 0
0.375 0.15625 0
0.40625 0.15625 0
0.40625 0.125 0
0.4375 0.125 0
0.40625 0.15625 0
0.4375 0.15625 0
0.375 0.15625 0
0.40625 0.15625 0
0.375 0.1875 0
0.40625 0.1875 0
0.40625 0.15625 0
0.4375 0.15625 0
0.40625 0.1875 0
0.4375 0.1875 0
0.4375 0.125 0
0.46875 0.125 0
0.4375 0.15625 0
0.46875 0.15625 0
0.46875 0.125 0
0.5 0.125 0
0.46875 0.15625 0
0.5 0.15625 0
0.4375 0.15625 0
0.46875 0.15625 0
0.4375 0.1875 0
0.46875 0.1875 0
0.46875 0.15625 0
0.5 0.15625 0
0.46875 0.1875 0
0.5 0.1875 0
0.375 0.1875 0
0.40625 0.1875 0
0.375 0.21875 0
0.40625 0.21875 0
0.40625 0.1875 0
0.4375 0.1875 0
0.40625 0.21875 0
0.4375 0.21875 0
0.375 0.21875 0
0.40625 0.21875 0
0.375 0.25 0
0.40625 0.25 0
0.40625 0.21875 0
0.4375 0.21875 0
0.40625 0.25 0
0.4375 0.25 0
0.4375 0.1875 0
0.46875 0.1875 0
0.4375 0.21875 0
0.46875 0.21875 0
0.46875 0.1875 0
0.5 0.1875 0
0.46875 0.21875 0
0.5 0.21875 0
0.4375 0.21875 0
0.46875 0.21875 0
0.4375 0.25 0
0.46875 0.25 0
0.46875 0.21875 0
0.5 0.21875 0
0.46875 0.25 0
0.5 0.25 0
0 0.25 0
0.03125 0.25 0
0 0.28125 0
0.03125 0.28125 0
0.03125 0.25 0
0.0625 0.25 0
0.03125 0.28125 0
0.0625 0.28125 0
0 0.28125 0
0.03125 0.28125 0
0 0.3125 0
0.03125 0.3125 0
0.03125 0.28125 0
0.0625 0.28125 0
0.03125 0.3125 0
0.0625 0.3125 0
0.0625 0.25 0
0.09375 0.25 0
0.0625 0.28125 0
0.09375 0.28125 0
0.09375 0.25 0
0.125 0.25 0
0.09375 0.28125 0
0.125 0.28125 0
0.0625 0.28125 0
0.09375 0.28125 0
0.0625 0.3125 0
0.09375 0.3125 0
0.09375 0.28125 0
0.125 0.28125 0
0.09375 0.3125 0
0.125 0.3125 0
0 0.3125 0
0.03125 0.3125 0
0 0.34375 0
0.03125 0.34375 0
0.03125 0.3125 0
0.0625 0.3125 0
0.03125 0.34375 0
0.0625 0.34375 0
0 0.34375 0
0.03125 0.34375 0
0 0.375 0
0.03125 0.375 0
0.03125 0.34375 0
0.0625 0.34375 0
0.03125 0.375 0
0.0625 0.375 0
0.0625 0.3125 0
0.09375 0.3125 0
0.0625 0.34375 0
0.09375 0.34375 0
0.09375 0.3125 0
0.125 0.3125 0
0.09375 0.34375 0
0.125 0.34375 0
0.0625 0.34375 0
0.09375 0.34375 0
0.0625 0.375 0
0.09375 0.375 0
0.09375 0.34375 0
0.125 0.34375 0
0.09375 0.375 0
0.125 0.375 0
0.125 0.25 0
0.15625 0.25 0
0.125 0.28125 0
0.15625 0.28125 0
0.15625 0.25 0
0.1875 0.25 0
0.15625 0.28125 0
0.1875 0.28125 0
0.125 0.28125 0
0.15625 0.28125 0
0.125 0.3125 0
0.15625 0.3125 0
0.15625 0.28125 0
0.1875 0.28125 0
0.15625 0.3125 0
0.1875 0.3125 0
0.1875 0.25 0
0.21875 0.25 0
0.1875 0.28125 0
0.21875 0.28125 0
0.21875 0.25 0
0.25 0.25 0
0.21875 0.28125 0
0.25 0.28125 0
0.1875 0.28125 0
0.21875 0.28125 0
0.1875 0.3125 0
0.21875 0.3125 0
0.21875 0.28125 0
0.25 0.28125 0
0.21875 0.3125 0
0.25 0.3125 0
0.125 0.3125 0
0.15625 0.3125 0
0.125 0.34375 0
0.15625 0.34375 0
0.15625 0.3125 0
0.1875 0.3125 0
0.15625 0.34375 0
0.1875 0.34375 0
0.125 0.34375 0
[...]
POINT_DATA 4096
SCALARS p double 1
LOOKUP_TABLE default
6.5602e-07 0.000102561 -0.000101313 1.51274e-06 0.000102561 -3.27284e-07 1.51274e-06 -0.000113769 -0.000101313 1.51274e-06 1.95686e-06 0.00012059 1.51274e-06 -0.000113769 0.00012059 5.92682e-06 -3.27284e-07 -0.000477221 -0.000113769 -0.000501183 -0.000477221 -0.00130359 -0.000501183 -0.00116339 -0.000113769 -0.000501183 5.92682e-06 -0.00043743 -0.000501183 -0.00116339 -0.00043743 -0.00117867 1.95686e-06 0.00012059 0.000481535 0.000515873 0.00012059 5.92682e-06 0.000515873 0.000455382 0.000481535 0.000515873 0.00132556 0.0012009 0.000515873 0.000455382 0.0012009 0.00121663 5.92682e-06 -0.00043743 0.000455382 5.56523e-06 -0.00043743 -0.00117867 5.56523e-06 -0.000727275 0.000455382 5.56523e-06 0.00121663 0.000735481 5.56523e-06 -0.000727275 0.000735481 -1.69356e-05 -0.00130359 -0.00246261 -0.00116339 -0.00209333 -0.00246261 -0.00393957 -0.00209333 -0.00327955 -0.00116339 -0.00209333 -0.00117867 -0.0022184 -0.00209333 -0.00327955 -0.0022184 -0.003543 -0.00393957 -0.0057174 -0.00327955 -0.0047085 -0.0057174 -0.00777597 -0.0047085 -0.00636408 -0.00327955 -0.0047085 -0.003543 -0.00513797 -0.0047085 -0.00636408 -0.00513797 -0.00698534 -0.00117867 -0.0022184 -0.000727275 -0.00175959 -0.0022184 -0.003543 -0.00175959 -0.00307427 -0.000727275 -0.00175959 -1.69356e-05 -0.00108304 -0.00175959 -0.00307427 -0.00108304 -0.00243945 -0.003543 -0.00513797 -0.00307427 -0.00465771 -0.00513797 -0.00698534 -0.00465771 -0.00649199 -0.00307427 -0.00465771 -0.00243945 -0.0040731 -0.00465771 -0.00649199 -0.0040731 -0.00596525 0.00132556 0.0012009 0.00253758 0.00218497 0.0012009 0.00121663 0.00218497 0.00230831 0.00253758 0.00218497 0.0041305 0.00347889 0.00218497 0.00230831 0.00347889 0.00374151 0.00121663 0.000735481 0.00230831 0.00178612 0.000735481 -1.69356e-05 0.00178612 0.00101145 0.00230831 0.00178612 0.00374151 0.00316443 0.00178612 0.00101145 0.00316443 0.00235876 0.0041305 0.00347889 0.00612248 0.00509773 0.00347889 0.00374151 0.00509773 0.00553346 0.00612248 0.00509773 0.00853689 0.00706044 0.00509773 0.00553346 0.00706044 0.00770515 0.00374151 0.00316443 0.00553346 0.00488772 0.00316443 0.00235876 0.00488772 0.00404283 0.00553346 0.00488772 0.00770515 0.00697599 0.00488772 0.00404283 0.00697599 0.00608281 -1.69356e-05 -0.00108304 0.00101145 -9.4835e-05 -0.00108304 -0.00243945 -9.4835e-05 -0.00150093 0.00101145 -9.4835e-05 0.00235876 0.00119789 -9.4835e-05 -0.00150093 0.00119789 -0.000275677 -0.00243945 -0.0040731 -0.00150093 -0.00319452 -0.0040731 -0.00596525 -0.00319452 -0.00515582 -0.00150093 -0.00319452 -0.000275677 -0.00205046 -0.00319452 -0.00515582 -0.00205046 -0.00410529 0.00235876 0.00119789 0.00404283 0.0028135 0.00119789 -0.000275677 0.0028135 0.00125539 0.00404283 0.0028135 0.00608281 0.00476984 0.0028135 0.00125539 0.00476984 0.00310855 -0.000275677 -0.00205046 0.00125539 -0.000621014 -0.00205046 -0.00410529 -0.000621014 -0.00279275 0.00125539 -0.000621014 0.00310855 0.00110836 -0.000621014 -0.00279275 0.00110836 -0.00120558 -0.00777597 -0.0100923 -0.00636408 -0.00822781 -0.0100923 -0.0126408 -0.00822781 -0.010279 -0.00636408 -0.00822781 -0.00698534 -0.00906448 -0.00822781 -0.010279 -0.00906448 -0.0113524 -0.0126408 -0.0153933 -0.010279 -0.0124951 -0.0153933 -0.0183195 -0.0124951 -0.0148518 -0.010279 -0.0124951 -0.0113524 -0.0138237 -0.0124951 -0.0148518 -0.0138237 -0.0164515 -0.00698534 -0.00906448 -0.00649199 -0.00855665 -0.00906448 -0.0113524 -0.00855665 -0.0108288 -0.00649199 -0.00855665 -0.00596525 -0.00809478 -0.00855665 -0.0108288 -0.00809478 -0.010438 -0.0113524 -0.0138237 -0.0108288 -0.0132834 -0.0138237 -0.0164515 -0.0132834 -0.0158934 -0.0108288 -0.0132834 -0.010438 -0.0129691 -0.0132834 -0.0158934 -0.0129691 -0.0156603 -0.0183195 -0.0213876 -0.0148518 -0.0173232 -0.0213876 -0.0245641 -0.0173232 -0.0198825 -0.0148518 -0.0173232 -0.0164515 -0.0192068 -0.0173232 -0.0198825 -0.0192068 -0.0220598 -0.0245641 -0.0278145 -0.0198825 -0.0225016 -0.0278145 -0.0311034 -0.0225016 -0.0251521 -0.0198825 -0.0225016 -0.0220598 -0.0249793 -0.0225016 -0.0251521 -0.0249793 -0.0279335 -0.0164515 -0.0192068 -0.0158934 -0.0186303 -0.0192068 -0.0220598 -0.0186303 -0.0214644 -0.0158934 -0.0186303 -0.0156603 -0.0184821 -0.0186303 -0.0214644 -0.0184821 -0.0214039 -0.0220598 -0.0249793 -0.0214644 -0.0243648 -0.0249793 -0.0279335 -0.0243648 -0.0272999 -0.0214644 -0.0243648 -0.0214039 -0.024394 -0.0243648 -0.0272999 -0.024394 -0.0274201 -0.00596525 -0.00809478 -0.00515582 -0.00736286 -0.00809478 -0.010438 -0.00736286 -0.009791 -0.00515582 -0.00736286 -0.00410529 -0.006417 -0.00736286 -0.009791 -0.006417 -0.00895969 -0.010438 -0.0129691 -0.009791 -0.0124134 -0.0129691 -0.0156603 -0.0124134 -0.0152013 -0.009791 -0.0124134 -0.00895969 -0.0117052 -0.0124134 -0.0152013 -0.0117052 -0.0146234 -0.00410529 -0.006417 -0.00279275 -0.00523512 -0.006417 -0.00895969 -0.00523512 -0.0079206 -0.00279275 -0.00523512 -0.00120558 -0.00380664 -0.00523512 -0.0079206 -0.00380664 -0.00666525 -0.00895969 -0.0117052 -0.0079206 -0.0108193 -0.0117052 -0.0146234 -0.0108193 -0.0138995 -0.0079206 -0.0108193 -0.00666525 -0.00974953 -0.0108193 -0.0138995 -0.00974953 -0.0130256 -0.0156603 -0.0184821 -0.0152013 -0.0181243 -0.0184821 -0.0214039 -0.0181243 -0.0211508 -0.0152013 -0.0181243 -0.0146234 -0.0176825 -0.0181243 -0.0211508 -0.0176825 -0.0208495 -0.0214039 -0.024394 -0.0211508 -0.0242479 -0.024394 -0.0274201 -0.0242479 -0.0273825 -0.0211508 -0.0242479 -0.0208495 -0.0240905 -0.0242479 -0.0273825 -0.0240905 -0.0273706 -0.0146234 -0.0176825 -0.0138995 -0.0171278 -0.0176825 -0.0208495 -0.0171278 -0.0204694 -0.0138995 -0.0171278 -0.0130256 -0.0164582 -0.0171278 -0.0204694 -0.0164582 -0.0200106 -0.0208495 -0.0240905 -0.0204694 -0.0238889 -0.0240905 -0.0273706 -0.0238889 -0.0273497 -0.0204694 -0.0238889 -0.0200106 -0.0236453 -0.0238889 -0.0273497 -0.0236453 -0.0273241 0.00853689 0.00706044 0.0114023 0.00939033 0.00706044 0.00770515 0.00939033 0.0102823 0.0114023 0.00939033 0.014753 0.0121153 0.00939033 0.0102823 0.0121153 0.0132958 0.00770515 0.00697599 0.0102823 0.00945382 0.00697599 0.00608281 0.00945382 0.00850245 0.0102823 0.00945382 0.0132958 0.0123506 0.00945382 0.00850245 0.0123506 0.01133 0.014753 0.0121153 0.0186294 0.0152685 0.0121153 0.0132958 0.0152685 0.0167822 0.0186294 0.0152685 0.0230793 0.0188889 0.0152685 0.0167822 0.0188889 0.0207845 0.0132958 0.0123506 0.0167822 0.0157011 0.0123506 0.01133 0.0157011 0.0145988 0.0167822 0.0157011 0.0207845 0.0195462 0.0157011 0.0145988 0.0195462 0.0183477 0.00608281 0.00476984 0.00850245 0.00708927 0.00476984 0.00310855 0.00708927 0.00530455 0.00850245 0.00708927 0.01133 0.00979836 0.00708927 0.00530455 0.00979836 0.00786795 0.00310855 0.00110836 0.00530455 0.00315659 0.00110836 -0.00120558 0.00315659 0.000673241 0.00530455 0.00315659 0.00786795 0.00554591 0.00315659 0.000673241 0.00554591 0.00286343 0.01133 0.00979836 0.0145988 0.0129282 0.00979836 0.00786795 0.0129282 0.0108273 0.0145988 0.0129282 0.0183477 0.016515 0.0129282 0.0108273 0.016515 0.0142154 0.00786795 0.00554591 0.0108273 0.00830199 0.00554591 0.00286343 0.00830199 0.0053877 0.0108273 0.00830199 0.0142154 0.0114542 0.00830199 0.0053877 0.0114542 0.00827175 0.0230793 0.0188889 0.0281587 0.0230223 0.0188889 0.0207845 0.0230223 0.0253531 0.0281587 0.0230223 0.0339331 0.0277224 0.0230223 0.0253531 0.0277224 0.0305472 0.0207845 0.0195462 0.0253531 0.0239334 0.0195462 0.0183477 0.0239334 0.0226219 0.0253531 0.0239334 0.0305472 0.0289184 0.0239334 0.0226219 0.0289184 0.027474 0.0339331 0.0277224 0.0404796 0.0330522 0.0277224 0.0305472 0.0330522 0.0364361 0.0404796 0.0330522 0.047889 0.0390865 0.0330522 0.0364361 0.0390865 0.0431018 0.0305472 0.0289184 0.0364361 0.0345662 0.0289184 0.027474 0.0345662 0.0329646 0.0364361 0.0345662 0.0431018 0.040953 0.0345662 0.0329646 0.040953 0.0391642 0.0183477 0.016515 0.0226219 0.0206003 0.016515 0.0142154 0.0206003 0.01807 0.0226219 0.0206003 0.027474 0.0252322 0.0206003 0.01807 0.0252322 0.0224337 0.0142154 0.0114542 0.01807 0.0150358 0.0114542 0.00827175 0.0150358 0.0115442 0.01807 0.0150358 0.0224337 0.0190838 0.0150358 0.0115442 0.0190838 0.0152368 0.027474 0.0252322 0.0329646 0.0304652 0.0252322 0.0224337 0.0304652 0.0273546 0.0329646 0.0304652 0.0391642 0.0363622 0.0304652 0.0273546 0.0363622 0.0328867 0.0224337 0.0190838 0.0273546 0.0236394 0.0190838 0.0152368 0.0236394 0.0193835 0.0273546 0.0236394 0.0328867 0.0287476 0.0236394 0.0193835 0.0287476 0.024021 -0.00120558 -0.00380664 0.000673241 -0.00211653 -0.00380664 -0.00666525 -0.00211653 -0.00518067 0.000673241 -0.00211653 0.00286343 -0.000147595 -0.00211653 -0.00518067 -0.000147595 -0.00345215 -0.00666525 -0.00974953 -0.00518067 -0.0084848 -0.00974953 -0.0130256 -0.0084848 -0.0119927 -0.00518067 -0.0084848 -0.00345215 -0.00701293 -0.0084848 -0.0119927 -0.00701293 -0.0107909 0.00286343 -0.000147595 0.0053877 0.00211982 -0.000147595 -0.00345215 0.00211982 -0.00146302 0.0053877 0.00211982 0.00827175 0.00470777 0.00211982 -0.00146302 0.00470777 0.000805219 -0.00345215 -0.00701293 -0.00146302 -0.00532008 -0.00701293 -0.0107909 -0.00532008 -0.00940899 -0.00146302 -0.00532008 0.000805219 -0.00339106 -0.00532008 -0.00940899 -0.00339106 -0.00783496 -0.0130256 -0.0164582 -0.0119927 -0.0156667 -0.0164582 -0.0200106 -0.0156667 -0.0194678 -0.0119927 -0.0156667 -0.0107909 -0.0147456 -0.0156667 -0.0194678 -0.0147456 -0.0188356 -0.0200106 -0.0236453 -0.0194678 -0.0233564 -0.0236453 -0.0273241 -0.0233564 -0.0272922 -0.0194678 -0.0233564 -0.0188356 -0.023019 -0.0233564 -0.0272922 -0.023019 -0.0272529 -0.0107909 -0.0147456 -0.00940899 -0.0136863 -0.0147456 -0.0188356 -0.0136863 -0.0181079 -0.00940899 -0.0136863 -0.00783496 -0.0124797 -0.0136863 -0.0181079 -0.0124797 -0.0172781 -0.0188356 -0.023019 -0.0181079 -0.0226291 -0.023019 -0.0272529 -0.0226291 -0.0272047 -0.0181079 -0.0226291 -0.0172781 -0.0221826 -0.0226291 -0.0272047 -0.0221826 -0.0271457 0.00827175 0.00470777 0.0115442 0.0076405 0.00470777 0.000805219 0.0076405 0.00337269 0.0115442 0.0076405 0.0152368 0.0109443 0.0076405 0.00337269 0.0109443 0.00626078 0.000805219 -0.00339106 0.00337269 -0.00120957 -0.00339106 -0.00783496 -0.00120957 -0.00605591 0.00337269 -0.00120957 0.00626078 0.00124146 -0.00120957 -0.00605591 0.00124146 -0.00405852 0.0152368 0.0109443 0.0193835 0.014647 0.0109443 0.00626078 0.014647 0.00949161 0.0193835 0.014647 0.024021 0.0187772 0.014647 0.00949161 0.0187772 0.0130872 0.00626078 0.00124146 0.00949161 0.00397925 0.00124146 -0.00405852 0.00397925 -0.00182963 0.00949161 0.00397925 0.0130872 0.00702035 0.00397925 -0.00182963 0.00702035 0.000643011 -0.00783496 -0.0124797 -0.00605591 -0.0111158 -0.0124797 -0.0172781 -0.0111158 -0.0163389 -0.00605591 -0.0111158 -0.00405852 -0.00958464 -0.0111158 -0.0163389 -0.00958464 -0.0152832 -0.0172781 -0.0221826 -0.0163389 -0.021675 -0.0221826 -0.0271457 -0.021675 -0.0270739 -0.0163389 -0.021675 -0.0152832 -0.0211014 -0.021675 -0.0270739 -0.0211014 -0.0269868 -0.00405852 -0.00958464 -0.00182963 -0.00787627 -0.00958464 -0.0152832 -0.00787627 -0.0141038 -0.00182963 -0.00787627 0.000643011 -0.0059817 -0.00787627 -0.0141038 -0.0059817 -0.0127939 -0.0152832 -0.0211014 -0.0141038 -0.0204569 -0.0211014 -0.0269868 -0.0204569 -0.0268814 -0.0141038 -0.0204569 -0.0127939 -0.0197366 -0.0204569 -0.0268814 -0.0197366 -0.0267545 -0.0311034 -0.0343949 -0.0251521 -0.0278051 -0.0343949 -0.0376534 -0.0278051 -0.0304316 -0.0251521 -0.0278051 -0.0279335 -0.0308903 -0.0278051 -0.0304316 -0.0308903 -0.0338174 -0.0376534 -0.0408431 -0.0304316 -0.0330027 -0.0408431 -0.0439288 -0.0330027 -0.03549 -0.0304316 -0.0330027 -0.0338174 -0.0366828 -0.0330027 -0.03549 -0.0366828 -0.0394548 -0.0279335 -0.0308903 -0.0272999 -0.0302378 -0.0308903 -0.0338174 -0.0302378 -0.0331465 -0.0272999 -0.0302378 -0.0274201 -0.0304492 -0.0302378 -0.0331465 -0.0304492 -0.0334486 -0.0338174 -0.0366828 -0.0331465 -0.0359942 -0.0366828 -0.0394548 -0.0359942 -0.0387494 -0.0331465 -0.0359942 -0.0334486 -0.0363853 -0.0359942 -0.0387494 -0.0363853 -0.0392272 -0.0439288 -0.0468766 -0.03549 -0.037866 -0.0468766 -0.0496535 -0.037866 -0.0401042 -0.03549 -0.037866 -0.0394548 -0.0421028 -0.037866 -0.0401042 -0.0421028 -0.0445972 -0.0496535 -0.0522284 -0.0401042 -0.0421792 -0.0522284 -0.0545721 -0.0421792 -0.0440675 -0.0401042 -0.0421792 -0.0445972 -0.04691 -0.0421792 -0.0440675 -0.04691 -0.0490149 -0.0394548 -0.0421028 -0.0387494 -0.0413817 -0.0421028 -0.0445972 -0.0413817 -0.0438615 -0.0387494 -0.0413817 -0.0392272 -0.0419428 -0.0413817 -0.0438615 -0.0419428 -0.0445016 -0.0445972 -0.04691 -0.0438615 -0.046161 -0.04691 -0.0490149 -0.046161 -0.0482539 -0.0438615 -0.046161 -0.0445016 -0.0468749 -0.046161 -0.0482539 -0.0468749 -0.0490355 -0.0274201 -0.0304492 -0.0273825 -0.0305205 -0.0304492 -0.0334486 -0.0305205 -0.033628 -0.0273825 -0.0305205 -0.0273706 -0.0306548 -0.0305205 -0.033628 -0.0306548 -0.0339076 -0.0334486 -0.0363853 -0.033628 -0.0366713 -0.0363853 -0.0392272 -0.0366713 -0.039617 -0.033628 -0.0366713 -0.0339076 -0.037094 -0.0366713 -0.039617 -0.037094 -0.0401791 -0.0273706 -0.0306548 -0.0273497 -0.0308152 -0.0306548 -0.0339076 -0.0308152 -0.0342484 -0.0273497 -0.0308152 -0.0273241 -0.0310083 -0.0308152 -0.0342484 -0.0310083 -0.0346592 -0.0339076 -0.037094 -0.0342484 -0.0376125 -0.037094 -0.0401791 -0.0376125 -0.0408709 -0.0342484 -0.0376125 -0.0346592 -0.0382379 -0.0376125 -0.0408709 -0.0382379 -0.0417058 -0.0392272 -0.0419428 -0.039617 -0.0424325 -0.0419428 -0.0445016 -0.0424325 -0.0450863 -0.039617 -0.0424325 -0.0401791 -0.0431289 -0.0424325 -0.0450863 -0.0431289 -0.0459105 -0.0445016 -0.0468749 -0.0450863 -0.0475485 -0.0468749 -0.0490355 -0.0475485 -0.0497907 -0.0450863 -0.0475485 -0.0459105 -0.0484922 -0.0475485 -0.0497907 -0.0484922 -0.0508444 -0.0401791 -0.0431289 -0.0408709 -0.0439879 -0.0431289 -0.0459105 -0.0439879 -0.0469286 -0.0408709 -0.0439879 -0.0417058 -0.0450251 -0.0439879 -0.0469286 -0.0450251 -0.0481587 -0.0459105 -0.0484922 -0.0469286 -0.0496596 -0.0484922 -0.0508444 -0.0496596 -0.0521492 -0.0469286 -0.0496596 -0.0481587 -0.0510709 -0.0496596 -0.0521492 -0.0510709 -0.0537276 -0.0545721 -0.056658 -0.0440675 -0.0457472 -0.056658 -0.0584604 -0.0457472 -0.0472011 -0.0440675 -0.0457472 -0.0490149 -0.0508879 -0.0457472 -0.0472011 -0.0508879 -0.0525082 -0.0584604 -0.0599677 -0.0472011 -0.0483984 -0.0599677 -0.0611195 -0.0483984 -0.0494038 -0.0472011 -0.0483984 -0.0525082 -0.053847 -0.0483984 -0.0494038 -0.053847 -0.054955 -0.0490149 -0.0508879 -0.0482539 -0.0501162 -0.0508879 -0.0525082 -0.0501162 -0.0517272 -0.0482539 -0.0501162 -0.0490355 -0.0509585 -0.0501162 -0.0517272 -0.0509585 -0.0526224 -0.0525082 -0.053847 -0.0517272 -0.0530577 -0.053847 -0.054955 -0.0530577 -0.0541613 -0.0517272 -0.0530577 -0.0526224 -0.0539971 -0.0530577 -0.0541613 -0.0539971 -0.0551362 -0.0611195 -0.0620801 -0.0494038 -0.0498138 -0.0620801 -0.062664 -0.0498138 -0.0514782 -0.0494038 -0.0498138 -0.054955 -0.0554577 -0.0498138 -0.0514782 -0.0554577 -0.0571211 -0.062664 -0.0594387 -0.0514782 -0.0460065 -0.0594387 -0.0655425 -0.0460065 -0.0592479 -0.0514782 -0.0460065 -0.0571211 -0.051701 -0.0460065 -0.0592479 -0.051701 -0.0626763 -0.054955 -0.0554577 -0.0541613 -0.0546474 -0.0554577 -0.0571211 -0.0546474 -0.056376 -0.0541613 -0.0546474 -0.0551362 -0.0556478 -0.0546474 -0.056376 -0.0556478 -0.0573994 -0.0571211 -0.051701 -0.056376 -0.0508435 -0.051701 -0.0626763 -0.0508435 -0.0630723 -0.056376 -0.0508435 -0.0573994 -0.0518056 -0.0508435 -0.0630723 -0.0518056 -0.0638121 -0.0490355 -0.0509585 -0.0497907 -0.0517869 -0.0509585 -0.0526224 -0.0517869 -0.0535147 -0.0497907 -0.0517869 -0.0508444 -0.0529394 -0.0517869 -0.0535147 -0.0529394 -0.0547535 -0.0526224 -0.0539971 -0.0535147 -0.0549427 -0.0539971 -0.0551362 -0.0549427 -0.0561253 -0.0535147 -0.0549427 -0.0547535 -0.0562536 -0.0549427 -0.0561253 -0.0562536 -0.0574949 -0.0508444 -0.0529394 -0.0521492 -0.0543679 -0.0529394 -0.0547535 -0.0543679 -0.05629 -0.0521492 -0.0543679 -0.0537276 -0.056097 -0.0543679 -0.05629 -0.056097 -0.0581511 -0.0547535 -0.0562536 -0.05629 -0.0578807 -0.0562536 -0.0574949 -0.0578807 -0.0591955 -0.05629 -0.0578807 -0.0581511 -0.0598525 -0.0578807 -0.0591955 -0.0598525 -0.0612574 -0.0551362 -0.0556478 -0.0561253 -0.0566614 -0.0556478 -0.0573994 -0.0566614 -0.058457 -0.0561253 -0.0566614 -0.0574949 -0.0580653 -0.0566614 -0.058457 -0.0580653 -0.0599171 -0.0573994 -0.0518056 -0.058457 -0.0527477 -0.0518056 -0.0638121 -0.0527477 -0.065069 -0.058457 -0.0527477 -0.0599171 -0.0540717 -0.0527477 -0.065069 -0.0540717 -0.0666784 -0.0574949 -0.0580653 -0.0591955 -0.0598093 -0.0580653 -0.0599171 -0.0598093 -0.0617323 -0.0591955 -0.0598093 -0.0612574 -0.0619247 -0.0598093 -0.0617323 -0.0619247 -0.0639343 -0.0599171 -0.0540717 -0.0617323 -0.0557145 -0.0540717 -0.0666784 -0.0557145 -0.0687011 -0.0617323 -0.0557145 -0.0639343 -0.0577099 -0.0557145 -0.0687011 -0.0577099 -0.0711524 -0.0273241 -0.0310083 -0.0272922 -0.0312345 -0.0310083 -0.0346592 -0.0312345 -0.0351421 -0.0272922 -0.0312345 -0.0272529 -0.0314945 -0.0312345 -0.0351421 -0.0314945 -0.0357004 -0.0346592 -0.0382379 -0.0351421 -0.0389743 -0.0382379 -0.0417058 -0.0389743 -0.04269 -0.0351421 -0.0389743 -0.0357004 -0.0398272 -0.0389743 -0.04269 -0.0398272 -0.0438315 -0.0272529 -0.0314945 -0.0272047 -0.0317893 -0.0314945 -0.0357004 -0.0317893 -0.0363373 -0.0272047 -0.0317893 -0.0271457 -0.0321196 -0.0317893 -0.0363373 -0.0321196 -0.037056 -0.0357004 -0.0398272 -0.0363373 -0.0408025 -0.0398272 -0.0438315 -0.0408025 -0.0451389 -0.0363373 -0.0408025 -0.037056 -0.0419063 -0.0408025 -0.0451389 -0.0419063 -0.0466214 -0.0417058 -0.0450251 -0.04269 -0.046249 -0.0450251 -0.0481587 -0.046249 -0.0496116 -0.04269 -0.046249 -0.0438315 -0.0476702 -0.046249 -0.0496116 -0.0476702 -0.0513005 -0.0481587 -0.0510709 -0.0496116 -0.0527393 -0.0510709 -0.0537276 -0.0527393 -0.0555952 -0.0496116 -0.0527393 -0.0513005 -0.0546809 -0.0527393 -0.0555952 -0.0546809 -0.0577711 -0.0438315 -0.0476702 -0.0451389 -0.0493003 -0.0476702 -0.0513005 -0.0493003 -0.0532405 -0.0451389 -0.0493003 -0.0466214 -0.0511518 -0.0493003 -0.0532405 -0.0511518 -0.0554477 -0.0513005 -0.0546809 -0.0532405 -0.0569142 -0.0546809 -0.0577711 -0.0569142 -0.0602771 -0.0532405 -0.0569142 -0.0554477 -0.0594595 -0.0569142 -0.0602771 -0.0594595 -0.063138 -0.0271457 -0.0321196 -0.0270739 -0.0324856 -0.0321196 -0.037056 -0.0324856 -0.0378595 -0.0270739 -0.0324856 -0.0269868 -0.0328873 -0.0324856 -0.0378595 -0.0328873 -0.0387502 -0.037056 -0.0419063 -0.0378595 -0.0431443 -0.0419063 -0.0466214 -0.0431443 -0.0482881 -0.0378595 -0.0431443 -0.0387502 -0.044522 -0.0431443 -0.0482881 -0.044522 -0.0501479 -0.0269868 -0.0328873 -0.0268814 -0.0333237 -0.0328873 -0.0387502 -0.0333237 -0.0397296 -0.0268814 -0.0333237 -0.0267545 -0.033793 -0.0333237 -0.0397296 -0.033793 -0.0407975 -0.0387502 -0.044522 -0.0397296 -0.0460436 -0.044522 -0.0501479 -0.0460436 -0.0522085 -0.0397296 -0.0460436 -0.0407975 -0.0477115 -0.0460436 -0.0522085 -0.0477115 -0.0544757 -0.0466214 -0.0511518 -0.0482881 -0.0532378 -0.0511518 -0.0554477 -0.0532378 -0.0579395 -0.0482881 -0.0532378 -0.0501479 -0.0555712 -0.0532378 -0.0579395 -0.0555712 -0.0607337 -0.0554477 -0.0594595 -0.0579395 -0.0623387 -0.0594595 -0.063138 -0.0623387 -0.0663807 -0.0579395 -0.0623387 -0.0607337 -0.0655753 -0.0623387 -0.0663807 -0.0655753 -0.0700351 -0.0501479 -0.0555712 -0.0522085 -0.0581642 -0.0555712 -0.0607337 -0.0581642 -0.0638478 -0.0522085 -0.0581642 -0.0544757 -0.0610272 -0.0581642 -0.0638478 -0.0610272 -0.0672984 -0.0607337 -0.0655753 -0.0638478 -0.0691934 -0.0655753 -0.0700351 -0.0691934 -0.0741324 -0.0638478 -0.0691934 -0.0672984 -0.0732168 -0.0691934 -0.0741324 -0.0732168 -0.0787056 -0.0537276 -0.056097 -0.0555952 -0.0581446 -0.056097 -0.0581511 -0.0581446 -0.0603567 -0.0555952 -0.0581446 -0.0577711 -0.0605327 -0.0581446 -0.0603567 -0.0605327 -0.0629316 -0.0581511 -0.0598525 -0.0603567 -0.0621909 -0.0598525 -0.0612574 -0.0621909 -0.0637041 -0.0603567 -0.0621909 -0.0629316 -0.0649232 -0.0621909