# vtk DataFile Version 3.0
#This file was generated by the deal.II library on 2026/1/5 at 14:19:35
ASCII
DATASET UNSTRUCTURED_GRID

POINTS 4096 double
0 0 0
0.03125 0 0
0 0.03125 0
0.03125 0.03125 0
0.03125 0 0
0.0625 0 0
0.03125 0.03125 0
0.0625 0.03125 0
0 0.03125 0
0.03125 0.03125 0
0 0.0625 0
0.03125 0.0625 0
0.03125 0.03125 0
0.0625 0.03125 0
0.03125 0.0625 0
0.0625 0.0625 0
0.0625 0 0
0.09375 0 0
0.0625 0.03125 0
0.09375 0.03125 0
0.09375 0 0
0.125 0 0
0.09375 0.03125 0
0.125 0.03125 0
0.0625 0.03125 0
0.09375 0.03125 0
0.0625 0.0625 0
0.09375 0.0625 0
0.09375 0.03125 0
0.125 0.03125 0
0.09375 0.0625 0
0.125 0.0625 0
0 0.0625 0
0.03125 0.0625 0
0 0.09375 0
0.03125 0.09375 0
0.03125 0.0625 0
0.0625 0.0625 0
0.03125 0.09375 0
0.0625 0.09375 0
0 0.09375 0
0.03125 0.09375 0
0 0.125 0
0.03125 0.125 0
0.03125 0.09375 0
0.0625 0.09375 0
0.03125 0.125 0
0.0625 0.125 0
0.0625 0.0625 0
0.09375 0.0625 0
0.0625 0.09375 0
0.09375 0.09375 0
0.09375 0.0625 0
0.125 0.0625 0
0.09375 0.09375 0
0.125 0.09375 0
0.0625 0.09375 0
0.09375 0.09375 0
0.0625 0.125 0
0.09375 0.125 0
0.09375 0.09375 0
0.125 0.09375 0
0.09375 0.125 0
0.125 0.125 0
0.125 0 0
0.15625 0 0
0.125 0.03125 0
0.15625 0.03125 0
0.15625 0 0
0.1875 0 0
0.15625 0.03125 0
0.1875 0.03125 0
0.125 0.03125 0
0.15625 0.03125 0
0.125 0.0625 0
0.15625 0.0625 0
0.15625 0.03125 0
0.1875 0.03125 0
0.15625 0.0625 0
0.1875 0.0625 0
0.1875 0 0
0.21875 0 0
0.1875 0.03125 0
0.21875 0.03125 0
0.21875 0 0
0.25 0 0
0.21875 0.03125 0
0.25 0.03125 0
0.1875 0.03125 0
0.21875 0.03125 0
0.1875 0.0625 0
0.21875 0.0625 0
0.21875 0.03125 0
0.25 0.03125 0
0.21875 0.0625 0
0.25 0.0625 0
0.125 0.0625 0
0.15625 0.0625 0
0.125 0.09375 0
0.15625 0.09375 0
0.15625 0.0625 0
0.1875 0.0625 0
0.15625 0.09375 0
0.1875 0.09375 0
0.125 0.09375 0
0.15625 0.09375 0
0.125 0.125 0
0.15625 0.125 0
0.15625 0.09375 0
0.1875 0.09375 0
0.15625 0.125 0
0.1875 0.125 0
0.1875 0.0625 0
0.21875 0.0625 0
0.1875 0.09375 0
0.21875 0.09375 0
0.21875 0.0625 0
0.25 0.0625 0
0.21875 0.09375 0
0.25 0.09375 0
0.1875 0.09375 0
0.21875 0.09375 0
0.1875 0.125 0
0.21875 0.125 0
0.21875 0.09375 0
0.25 0.09375 0
0.21875 0.125 0
0.25 0.125 0
0 0.125 0
0.03125 0.125 0
0 0.15625 0
0.03125 0.15625 0
0.03125 0.125 0
0.0625 0.125 0
0.03125 0.15625 0
0.0625 0.15625 0
0 0.15625 0
0.03125 0.15625 0
0 0.1875 0
0.03125 0.1875 0
0.03125 0.15625 0
0.0625 0.15625 0
0.03125 0.1875 0
0.0625 0.1875 0
0.0625 0.125 0
0.09375 0.125 0
0.0625 0.15625 0
0.09375 0.15625 0
0.09375 0.125 0
0.125 0.125 0
0.09375 0.15625 0
0.125 0.15625 0
0.0625 0.15625 0
0.09375 0.15625 0
0.0625 0.1875 0
0.09375 0.1875 0
0.09375 0.15625 0
0.125 0.15625 0
0.09375 0.1875 0
0.125 0.1875 0
0 0.1875 0
0.03125 0.1875 0
0 0.21875 0
0.03125 0.21875 0
0.03125 0.1875 0
0.0625 0.1875 0
0.03125 0.21875 0
0.0625 0.21875 0
0 0.21875 0
0.03125 0.21875 0
0 0.25 0
0.03125 0.25 0
0.03125 0.21875 0
0.0625 0.21875 0
0.03125 0.25 0
0.0625 0.25 0
0.0625 0.1875 0
0.09375 0.1875 0
0.0625 0.21875 0
0.09375 0.21875 0
0.09375 0.1875 0
0.125 0.1875 0
0.09375 0.21875 0
0.125 0.21875 0
0.0625 0.21875 0
0.09375 0.21875 0
0.0625 0.25 0
0.09375 0.25 0
0.09375 0.21875 0
0.125 0.21875 0
0.09375 0.25 0
0.125 0.25 0
0.125 0.125 0
0.15625 0.125 0
0.125 0.15625 0
0.15625 0.15625 0
0.15625 0.125 0
0.1875 0.125 0
0.15625 0.15625 0
0.1875 0.15625 0
0.125 0.15625 0
0.15625 0.15625 0
0.125 0.1875 0
0.15625 0.1875 0
0.15625 0.15625 0
0.1875 0.15625 0
0.15625 0.1875 0
0.1875 0.1875 0
0.1875 0.125 0
0.21875 0.125 0
0.1875 0.15625 0
0.21875 0.15625 0
0.21875 0.125 0
0.25 0.125 0
0.21875 0.15625 0
0.25 0.15625 0
0.1875 0.15625 0
0.21875 0.15625 0
0.1875 0.1875 0
0.21875 0.1875 0
0.21875 0.15625 0
0.25 0.15625 0
0.21875 0.1875 0
0.25 0.1875 0
0.125 0.1875 0
0.15625 0.1875 0
0.125 0.21875 0
0.15625 0.21875 0
0.15625 0.1875 0
0.1875 0.1875 0
0.15625 0.21875 0
0.1875 0.21875 0
0.125 0.21875 0
0.15625 0.21875 0
0.125 0.25 0
0.15625 0.25 0
0.15625 0.21875 0
0.1875 0.21875 0
0.15625 0.25 0
0.1875 0.25 0
0.1875 0.1875 0
0.21875 0.1875 0
0.1875 0.21875 0
0.21875 0.21875 0
0.21875 0.1875 0
0.25 0.1875 0
0.21875 0.21875 0
0.25 0.21875 0
0.1875 0.21875 0
0.21875 0.21875 0
0.1875 0.25 0
0.21875 0.25 0
0.21875 0.21875 0
0.25 0.21875 0
0.21875 0.25 0
0.25 0.25 0
0.25 0 0
0.28125 0 0
0.25 0.03125 0
0.28125 0.03125 0
0.28125 0 0
0.3125 0 0
0.28125 0.03125 0
0.3125 0.03125 0
0.25 0.03125 0
0.28125 0.03125 0
0.25 0.0625 0
0.28125 0.0625 0
0.28125 0.03125 0
0.3125 0.03125 0
0.28125 0.0625 0
0.3125 0.0625 0
0.3125 0 0
0.34375 0 0
0.3125 0.03125 0
0.34375 0.03125 0
0.34375 0 0
0.375 0 0
0.34375 0.03125 0
0.375 0.03125 0
0.3125 0.03125 0
0.34375 0.03125 0
0.3125 0.0625 0
0.34375 0.0625 0
0.34375 0.03125 0
0.375 0.03125 0
0.34375 0.0625 0
0.375 0.0625 0
0.25 0.0625 0
0.28125 0.0625 0
0.25 0.09375 0
0.28125 0.09375 0
0.28125 0.0625 0
0.3125 0.0625 0
0.28125 0.09375 0
0.3125 0.09375 0
0.25 0.09375 0
0.28125 0.09375 0
0.25 0.125 0
0.28125 0.125 0
0.28125 0.09375 0
0.3125 0.09375 0
0.28125 0.125 0
0.3125 0.125 0
0.3125 0.0625 0
0.34375 0.0625 0
0.3125 0.09375 0
0.34375 0.09375 0
0.34375 0.0625 0
0.375 0.0625 0
0.34375 0.09375 0
0.375 0.09375 0
0.3125 0.09375 0
0.34375 0.09375 0
0.3125 0.125 0
0.34375 0.125 0
0.34375 0.09375 0
0.375 0.09375 0
0.34375 0.125 0
0.375 0.125 0
0.375 0 0
0.40625 0 0
0.375 0.03125 0
0.40625 0.03125 0
0.40625 0 0
0.4375 0 0
0.40625 0.03125 0
0.4375 0.03125 0
0.375 0.03125 0
0.40625 0.03125 0
0.375 0.0625 0
0.40625 0.0625 0
0.40625 0.03125 0
0.4375 0.03125 0
0.40625 0.0625 0
0.4375 0.0625 0
0.4375 0 0
0.46875 0 0
0.4375 0.03125 0
0.46875 0.03125 0
0.46875 0 0
0.5 0 0
0.46875 0.03125 0
0.5 0.03125 0
0.4375 0.03125 0
0.46875 0.03125 0
0.4375 0.0625 0
0.46875 0.0625 0
0.46875 0.03125 0
0.5 0.03125 0
0.46875 0.0625 0
0.5 0.0625 0
0.375 0.0625 0
0.40625 0.0625 0
0.375 0.09375 0
0.40625 0.09375 0
0.40625 0.0625 0
0.4375 0.0625 0
0.40625 0.09375 0
0.4375 0.09375 0
0.375 0.09375 0
0.40625 0.09375 0
0.375 0.125 0
0.40625 0.125 0
0.40625 0.09375 0
0.4375 0.09375 0
0.40625 0.125 0
0.4375 0.125 0
0.4375 0.0625 0
0.46875 0.0625 0
0.4375 0.09375 0
0.46875 0.09375 0
0.46875 0.0625 0
0.5 0.0625 0
0.46875 0.09375 0
0.5 0.09375 0
0.4375 0.09375 0
0.46875 0.09375 0
0.4375 0.125 0
0.46875 0.125 0
0.46875 0.09375 0
0.5 0.09375 0
0.46875 0.125 0
0.5 0.125 0
0.25 0.125 0
0.28125 0.125 0
0.25 0.15625 0
0.28125 0.15625 0
0.28125 0.125 0
0.3125 0.125 0
0.28125 0.15625 0
0.3125 0.15625 0
0.25 0.15625 0
0.28125 0.15625 0
0.25 0.1875 0
0.28125 0.1875 0
0.28125 0.15625 0
0.3125 0.15625 0
0.28125 0.1875 0
0.3125 0.1875 0
0.3125 0.125 0
0.34375 0.125 0
0.3125 0.15625 0
0.34375 0.15625 0
0.34375 0.125 0
0.375 0.125 0
0.34375 0.15625 0
0.375 0.15625 0
0.3125 0.15625 0
0.34375 0.15625 0
0.3125 0.1875 0
0.34375 0.1875 0
0.34375 0.15625 0
0.375 0.15625 0
0.34375 0.1875 0
0.375 0.1875 0
0.25 0.1875 0
0.28125 0.1875 0
0.25 0.21875 0
0.28125 0.21875 0
0.28125 0.1875 0
0.3125 0.1875 0
0.28125 0.21875 0
0.3125 0.21875 0
0.25 0.21875 0
0.28125 0.21875 0
0.25 0.25 0
0.28125 0.25 0
0.28125 0.21875 0
0.3125 0.21875 0
0.28125 0.25 0
0.3125 0.25 0
0.3125 0.1875 0
0.34375 0.1875 0
0.3125 0.21875 0
0.34375 0.21875 0
0.34375 0.1875 0
0.375 0.1875 0
0.34375 0.21875 0
0.375 0.21875 0
0.3125 0.21875 0
0.34375 0.21875 0
0.3125 0.25 0
0.34375 0.25 0
0.34375 0.21875 0
0.375 0.21875 0
0.34375 0.25 0
0.375 0.25 0
0.375 0.125 0
0.40625 0.125 0
0.375 0.15625 0
0.40625 0.15625 0
0.40625 0.125 0
0.4375 0.125 0
0.40625 0.15625 0
0.4375 0.15625 0
0.375 0.15625 0
0.40625 0.15625 0
0.375 0.1875 0
0.40625 0.1875 0
0.40625 0.15625 0
0.4375 0.15625 0
0.40625 0.1875 0
0.4375 0.1875 0
0.4375 0.125 0
0.46875 0.125 0
0.4375 0.15625 0
0.46875 0.15625 0
0.46875 0.125 0
0.5 0.125 0
0.46875 0.15625 0
0.5 0.15625 0
0.4375 0.15625 0
0.46875 0.15625 0
0.4375 0.1875 0
0.46875 0.1875 0
0.46875 0.15625 0
0.5 0.15625 0
0.46875 0.1875 0
0.5 0.1875 0
0.375 0.1875 0
0.40625 0.1875 0
0.375 0.21875 0
0.40625 0.21875 0
0.40625 0.1875 0
0.4375 0.1875 0
0.40625 0.21875 0
0.4375 0.21875 0
0.375 0.21875 0
0.40625 0.21875 0
0.375 0.25 0
0.40625 0.25 0
0.40625 0.21875 0
0.4375 0.21875 0
0.40625 0.25 0
0.4375 0.25 0
0.4375 0.1875 0
0.46875 0.1875 0
0.4375 0.21875 0
0.46875 0.21875 0
0.46875 0.1875 0
0.5 0.1875 0
0.46875 0.21875 0
0.5 0.21875 0
0.4375 0.21875 0
0.46875 0.21875 0
0.4375 0.25 0
0.46875 0.25 0
0.46875 0.21875 0
0.5 0.21875 0
0.46875 0.25 0
0.5 0.25 0
0 0.25 0
0.03125 0.25 0
0 0.28125 0
0.03125 0.28125 0
0.03125 0.25 0
0.0625 0.25 0
0.03125 0.28125 0
0.0625 0.28125 0
0 0.28125 0
0.03125 0.28125 0
0 0.3125 0
0.03125 0.3125 0
0.03125 0.28125 0
0.0625 0.28125 0
0.03125 0.3125 0
0.0625 0.3125 0
0.0625 0.25 0
0.09375 0.25 0
0.0625 0.28125 0
0.09375 0.28125 0
0.09375 0.25 0
0.125 0.25 0
0.09375 0.28125 0
0.125 0.28125 0
0.0625 0.28125 0
0.09375 0.28125 0
0.0625 0.3125 0
0.09375 0.3125 0
0.09375 0.28125 0
0.125 0.28125 0
0.09375 0.3125 0
0.125 0.3125 0
0 0.3125 0
0.03125 0.3125 0
0 0.34375 0
0.03125 0.34375 0
0.03125 0.3125 0
0.0625 0.3125 0
0.03125 0.34375 0
0.0625 0.34375 0
0 0.34375 0
0.03125 0.34375 0
0 0.375 0
0.03125 0.375 0
0.03125 0.34375 0
0.0625 0.34375 0
0.03125 0.375 0
0.0625 0.375 0
0.0625 0.3125 0
0.09375 0.3125 0
0.0625 0.34375 0
0.09375 0.34375 0
0.09375 0.3125 0
0.125 0.3125 0
0.09375 0.34375 0
0.125 0.34375 0
0.0625 0.34375 0
0.09375 0.34375 0
0.0625 0.375 0
0.09375 0.375 0
0.09375 0.34375 0
0.125 0.34375 0
0.09375 0.375 0
0.125 0.375 0
0.125 0.25 0
0.15625 0.25 0
0.125 0.28125 0
0.15625 0.28125 0
0.15625 0.25 0
0.1875 0.25 0
0.15625 0.28125 0
0.1875 0.28125 0
0.125 0.28125 0
0.15625 0.28125 0
0.125 0.3125 0
0.15625 0.3125 0
0.15625 0.28125 0
0.1875 0.28125 0
0.15625 0.3125 0
0.1875 0.3125 0
0.1875 0.25 0
0.21875 0.25 0
0.1875 0.28125 0
0.21875 0.28125 0
0.21875 0.25 0
0.25 0.25 0
0.21875 0.28125 0
0.25 0.28125 0
0.1875 0.28125 0
0.21875 0.28125 0
0.1875 0.3125 0
0.21875 0.3125 0
0.21875 0.28125 0
0.25 0.28125 0
0.21875 0.3125 0
0.25 0.3125 0
0.125 0.3125 0
0.15625 0.3125 0
0.125 0.34375 0
0.15625 0.34375 0
0.15625 0.3125 0
0.1875 0.3125 0
0.15625 0.34375 0
0.1875 0.34375 0
0.125 0.34375 0
[...]
POINT_DATA 4096
SCALARS p double 1
LOOKUP_TABLE default
1.14584e-05 0.000102998 -7.50839e-05 2.05207e-05 0.000102998 0.000347828 2.05207e-05 0.000151233 -7.50839e-05 2.05207e-05 -0.000322405 -0.000111778 2.05207e-05 0.000151233 -0.000111778 2.06922e-05 0.000347828 0.000596445 0.000151233 0.000286254 0.000596445 0.000754704 0.000286254 0.000363545 0.000151233 0.000286254 2.06922e-05 0.00014565 0.000286254 0.000363545 0.00014565 0.00020111 -0.000322405 -0.000111778 -0.000580186 -0.000246919 -0.000111778 2.06922e-05 -0.000246919 -9.73464e-05 -0.000580186 -0.000246919 -0.000755801 -0.000324486 -0.000246919 -9.73464e-05 -0.000324486 -0.000141379 2.06922e-05 0.00014565 -9.73464e-05 3.20093e-05 0.00014565 0.00020111 3.20093e-05 7.70198e-05 -9.73464e-05 3.20093e-05 -0.000141379 9.58008e-06 3.20093e-05 7.70198e-05 9.58008e-06 6.00284e-05 0.000754704 0.000781057 0.000363545 0.000354891 0.000781057 0.000663184 0.000354891 0.000246703 0.000363545 0.000354891 0.00020111 0.000170816 0.000354891 0.000246703 0.000170816 4.18286e-05 0.000663184 0.000402064 0.000246703 3.55433e-05 0.000402064 4.79312e-06 3.55433e-05 -0.000276657 0.000246703 3.55433e-05 4.18286e-05 -0.00019024 3.55433e-05 -0.000276657 -0.00019024 -0.000525093 0.00020111 0.000170816 7.70198e-05 3.76704e-05 0.000170816 4.18286e-05 3.76704e-05 -9.44197e-05 7.70198e-05 3.76704e-05 6.00284e-05 2.07073e-05 3.76704e-05 -9.44197e-05 2.07073e-05 -0.00011255 4.18286e-05 -0.00019024 -9.44197e-05 -0.000321872 -0.00019024 -0.000525093 -0.000321872 -0.000644596 -9.44197e-05 -0.000321872 -0.00011255 -0.000339955 -0.000321872 -0.000644596 -0.000339955 -0.00066067 -0.000755801 -0.000324486 -0.000805011 -0.000312797 -0.000324486 -0.000141379 -0.000312797 -9.03058e-05 -0.000805011 -0.000312797 -0.000708182 -0.000191773 -0.000312797 -9.03058e-05 -0.000191773 7.67922e-05 -0.000141379 9.58008e-06 -9.03058e-05 8.43339e-05 9.58008e-06 6.00284e-05 8.43339e-05 0.000146494 -9.03058e-05 8.43339e-05 7.67922e-05 0.000273255 8.43339e-05 0.000146494 0.000273255 0.000349786 -0.000708182 -0.000191773 -0.000455741 5.08732e-05 -0.000191773 7.67922e-05 5.08732e-05 0.000374386 -0.000455741 5.08732e-05 -4.16569e-05 0.000424137 5.08732e-05 0.000374386 0.000424137 0.000814387 7.67922e-05 0.000273255 0.000374386 0.000589245 0.000273255 0.000349786 0.000589245 0.000680742 0.000374386 0.000589245 0.000814387 0.00104438 0.000589245 0.000680742 0.00104438 0.00115075 6.00284e-05 2.07073e-05 0.000146494 0.000112178 2.07073e-05 -0.00011255 0.000112178 -1.92453e-05 0.000146494 0.000112178 0.000349786 0.000322417 0.000112178 -1.92453e-05 0.000322417 0.00019342 -0.00011255 -0.000339955 -1.92453e-05 -0.000245889 -0.000339955 -0.00066067 -0.000245889 -0.000565943 -1.92453e-05 -0.000245889 0.00019342 -3.38292e-05 -0.000245889 -0.000565943 -3.38292e-05 -0.000356623 0.000349786 0.000322417 0.000680742 0.000660372 0.000322417 0.00019342 0.000660372 0.000533008 0.000680742 0.000660372 0.00115075 0.00113642 0.000660372 0.000533008 0.00113642 0.00100901 0.00019342 -3.38292e-05 0.000533008 0.000303034 -3.38292e-05 -0.000356623 0.000303034 -2.61397e-05 0.000533008 0.000303034 0.00100901 0.000773465 0.000303034 -2.61397e-05 0.000773465 0.000433763 4.79312e-06 -0.000519146 -0.000276657 -0.00068504 -0.000519146 -0.00115947 -0.00068504 -0.00118321 -0.000276657 -0.00068504 -0.000525093 -0.000959259 -0.00068504 -0.00118321 -0.000959259 -0.00148729 -0.00115947 -0.00190556 -0.00118321 -0.00176373 -0.00190556 -0.00274626 -0.00176373 -0.00241827 -0.00118321 -0.00176373 -0.00148729 -0.00210217 -0.00176373 -0.00241827 -0.00210217 -0.00279565 -0.000525093 -0.000959259 -0.000644596 -0.0010601 -0.000959259 -0.00148729 -0.0010601 -0.00156414 -0.000644596 -0.0010601 -0.00066067 -0.00107232 -0.0010601 -0.00156414 -0.00107232 -0.00157114 -0.00148729 -0.00210217 -0.00156414 -0.00215083 -0.00210217 -0.00279565 -0.00215083 -0.00281292 -0.00156414 -0.00215083 -0.00157114 -0.00215189 -0.00215083 -0.00281292 -0.00215189 -0.0028079 -0.00274626 -0.00366964 -0.00241827 -0.00313752 -0.00366964 -0.00466261 -0.00313752 -0.00391117 -0.00241827 -0.00313752 -0.00279565 -0.00355809 -0.00313752 -0.00391117 -0.00355809 -0.00437864 -0.00466261 -0.00571066 -0.00391117 -0.00472768 -0.00571066 -0.00679768 -0.00472768 -0.00557427 -0.00391117 -0.00472768 -0.00437864 -0.00524501 -0.00472768 -0.00557427 -0.00524501 -0.00614355 -0.00279565 -0.00355809 -0.00281292 -0.00354161 -0.00355809 -0.00437864 -0.00354161 -0.0043268 -0.00281292 -0.00354161 -0.0028079 -0.00353098 -0.00354161 -0.0043268 -0.00353098 -0.00431149 -0.00437864 -0.00524501 -0.0043268 -0.0051569 -0.00524501 -0.00614355 -0.0051569 -0.00601884 -0.0043268 -0.0051569 -0.00431149 -0.00513812 -0.0051569 -0.00601884 -0.00513812 -0.00599808 -0.00066067 -0.00107232 -0.000565943 -0.000976827 -0.00107232 -0.00157114 -0.000976827 -0.00147499 -0.000565943 -0.000976827 -0.000356623 -0.000772066 -0.000976827 -0.00147499 -0.000772066 -0.00127667 -0.00157114 -0.00215189 -0.00147499 -0.00205562 -0.00215189 -0.0028079 -0.00205562 -0.00271256 -0.00147499 -0.00205562 -0.00127667 -0.0018659 -0.00205562 -0.00271256 -0.0018659 -0.00253399 -0.000356623 -0.000772066 -2.61397e-05 -0.000451366 -0.000772066 -0.00127667 -0.000451366 -0.000969145 -2.61397e-05 -0.000451366 0.000433763 -6.72943e-06 -0.000451366 -0.000969145 -6.72943e-06 -0.000544534 -0.00127667 -0.0018659 -0.000969145 -0.00157516 -0.0018659 -0.00253399 -0.00157516 -0.00226399 -0.000969145 -0.00157516 -0.000544534 -0.00117559 -0.00157516 -0.00226399 -0.00117559 -0.00189477 -0.0028079 -0.00353098 -0.00271256 -0.0034381 -0.00353098 -0.00431149 -0.0034381 -0.00422303 -0.00271256 -0.0034381 -0.00253399 -0.00327362 -0.0034381 -0.00422303 -0.00327362 -0.0040759 -0.00431149 -0.00513812 -0.00422303 -0.00505633 -0.00513812 -0.00599808 -0.00505633 -0.00592539 -0.00422303 -0.00505633 -0.0040759 -0.00493004 -0.00505633 -0.00592539 -0.00493004 -0.00582345 -0.00253399 -0.00327362 -0.00226399 -0.0030287 -0.00327362 -0.0040759 -0.0030287 -0.00386063 -0.00226399 -0.0030287 -0.00189477 -0.00269552 -0.0030287 -0.00386063 -0.00269552 -0.00356945 -0.0040759 -0.00493004 -0.00386063 -0.00474913 -0.00493004 -0.00582345 -0.00474913 -0.00568158 -0.00386063 -0.00474913 -0.00356945 -0.00450604 -0.00474913 -0.00568158 -0.00450604 -0.0054926 -4.16569e-05 0.000424137 0.000540169 0.000936224 0.000424137 0.000814387 0.000936224 0.00140781 0.000540169 0.000936224 0.00129775 0.00159614 0.000936224 0.00140781 0.00159614 0.0021663 0.000814387 0.00104438 0.00140781 0.0016504 0.00104438 0.00115075 0.0016504 0.00177163 0.00140781 0.0016504 0.0021663 0.00241981 0.0016504 0.00177163 0.00241981 0.00255628 0.00129775 0.00159614 0.00224196 0.00241472 0.00159614 0.0021663 0.00241472 0.00310333 0.00224196 0.00241472 0.00338701 0.00340518 0.00241472 0.00310333 0.00340518 0.00423472 0.0021663 0.00241981 0.00310333 0.00336685 0.00241981 0.00255628 0.00336685 0.00351942 0.00310333 0.00336685 0.00423472 0.00450801 0.00336685 0.00351942 0.00450801 0.00467815 0.00115075 0.00113642 0.00177163 0.00176201 0.00113642 0.00100901 0.00176201 0.00163239 0.00177163 0.00176201 0.00255628 0.00255003 0.00176201 0.00163239 0.00255003 0.00241593 0.00100901 0.000773465 0.00163239 0.00138806 0.000773465 0.000433763 0.00138806 0.00103349 0.00163239 0.00138806 0.00241593 0.00215948 0.00138806 0.00103349 0.00215948 0.00178576 0.00255628 0.00255003 0.00351942 0.00351538 0.00255003 0.00241593 0.00351538 0.00337461 0.00351942 0.00351538 0.00467815 0.00467545 0.00351538 0.00337461 0.00467545 0.00452598 0.00241593 0.00215948 0.00337461 0.00310286 0.00215948 0.00178576 0.00310286 0.00270586 0.00337461 0.00310286 0.00452598 0.00423595 0.00310286 0.00270586 0.00423595 0.00381193 0.00338701 0.00340518 0.00475081 0.00458375 0.00340518 0.00423472 0.00458375 0.00557956 0.00475081 0.00458375 0.00635515 0.00597002 0.00458375 0.00557956 0.00597002 0.00716075 0.00423472 0.00450801 0.00557956 0.00586293 0.00450801 0.00467815 0.00586293 0.00605259 0.00557956 0.00586293 0.00716075 0.00745491 0.00586293 0.00605259 0.00745491 0.00766644 0.00635515 0.00597002 0.00822626 0.00758774 0.00597002 0.00716075 0.00758774 0.00900595 0.00822626 0.00758774 0.0103957 0.0094657 0.00758774 0.00900595 0.0094657 0.0111487 0.00716075 0.00745491 0.00900595 0.00931201 0.00745491 0.00766644 0.00931201 0.00954793 0.00900595 0.00931201 0.0111487 0.011468 0.00931201 0.00954793 0.011468 0.0117307 0.00467815 0.00467545 0.00605259 0.00605057 0.00467545 0.00452598 0.00605057 0.00589056 0.00605259 0.00605057 0.00766644 0.00766452 0.00605057 0.00589056 0.00766452 0.0074922 0.00452598 0.00423595 0.00589056 0.0055795 0.00423595 0.00381193 0.0055795 0.0051251 0.00589056 0.0055795 0.0074922 0.00715753 0.0055795 0.0051251 0.00715753 0.00666971 0.00766644 0.00766452 0.00954793 0.00954531 0.00766452 0.0074922 0.00954531 0.00935859 0.00954793 0.00954531 0.0117307 0.0117258 0.00954531 0.00935859 0.0117258 0.0115218 0.0074922 0.00715753 0.00935859 0.00899757 0.00715753 0.00666971 0.00899757 0.00847346 0.00935859 0.00899757 0.0115218 0.011131 0.00899757 0.00847346 0.011131 0.0105674 0.000433763 -6.72943e-06 0.00103349 0.000572239 -6.72943e-06 -0.000544534 0.000572239 7.67403e-06 0.00103349 0.000572239 0.00178576 0.0012984 0.000572239 7.67403e-06 0.0012984 0.000700634 -0.000544534 -0.00117559 7.67403e-06 -0.000656435 -0.00117559 -0.00189477 -0.000656435 -0.00141533 7.67403e-06 -0.000656435 0.000700634 -4.14834e-06 -0.000656435 -0.00141533 -4.14834e-06 -0.000811686 0.00178576 0.0012984 0.00270586 0.00218737 0.0012984 0.000700634 0.00218737 0.00155045 0.00270586 0.00218737 0.00381193 0.00325784 0.00218737 0.00155045 0.00325784 0.00257646 0.000700634 -4.14834e-06 0.00155045 0.000797981 -4.14834e-06 -0.000811686 0.000797981 -6.64341e-05 0.00155045 0.000797981 0.00257646 0.00177011 0.000797981 -6.64341e-05 0.00177011 0.000841549 -0.00189477 -0.00269552 -0.00141533 -0.00226285 -0.00269552 -0.00356945 -0.00226285 -0.00319096 -0.00141533 -0.00226285 -0.000811686 -0.00171633 -0.00226285 -0.00319096 -0.00171633 -0.00271051 -0.00356945 -0.00450604 -0.00319096 -0.00418937 -0.00450604 -0.0054926 -0.00418937 -0.00524533 -0.00319096 -0.00418937 -0.00271051 -0.00378431 -0.00418937 -0.00524533 -0.00378431 -0.00492502 -0.000811686 -0.00171633 -6.64341e-05 -0.00103783 -0.00171633 -0.00271051 -0.00103783 -0.00210935 -6.64341e-05 -0.00103783 0.000841549 -0.000205212 -0.00103783 -0.00210935 -0.000205212 -0.00136432 -0.00271051 -0.00378431 -0.00210935 -0.00327166 -0.00378431 -0.00492502 -0.00327166 -0.00451236 -0.00210935 -0.00327166 -0.00136432 -0.00262741 -0.00327166 -0.00451236 -0.00262741 -0.00398277 0.00381193 0.00325784 0.0051251 0.00453151 0.00325784 0.00257646 0.00453151 0.00380122 0.0051251 0.00453151 0.00666971 0.00603333 0.00453151 0.00380122 0.00603333 0.0052506 0.00257646 0.00177011 0.00380122 0.00293587 0.00177011 0.000841549 0.00293587 0.00193718 0.00380122 0.00293587 0.0052506 0.00432237 0.00293587 0.00193718 0.00432237 0.00324914 0.00666971 0.00603333 0.00847346 0.00779149 0.00603333 0.0052506 0.00779149 0.00695369 0.00847346 0.00779149 0.0105674 0.0098372 0.00779149 0.00695369 0.0098372 0.00894239 0.0052506 0.00432237 0.00695369 0.00596005 0.00432237 0.00324914 0.00596005 0.00480968 0.00695369 0.00596005 0.00894239 0.00788211 0.00596005 0.00480968 0.00788211 0.00665394 0.000841549 -0.000205212 0.00193718 0.00080788 -0.000205212 -0.00136432 0.00080788 -0.000447569 0.00193718 0.00080788 0.00324914 0.00203204 0.00080788 -0.000447569 0.00203204 0.000673673 -0.00136432 -0.00262741 -0.000447569 -0.00182221 -0.00262741 -0.00398277 -0.00182221 -0.00330565 -0.000447569 -0.00182221 0.000673673 -0.00082102 -0.00182221 -0.00330565 -0.00082102 -0.00244372 0.00324914 0.00203204 0.00480968 0.00350182 0.00203204 0.000673673 0.00350182 0.00203678 0.00480968 0.00350182 0.00665394 0.00525509 0.00350182 0.00203678 0.00525509 0.00368316 0.000673673 -0.00082102 0.00203678 0.000416832 -0.00082102 -0.00244372 0.000416832 -0.00135273 0.00203678 0.000416832 0.00368316 0.00193709 0.000416832 -0.00135273 0.00193709 1.81787e-05 -0.00679768 -0.00790592 -0.00557427 -0.00643686 -0.00790592 -0.0090161 -0.00643686 -0.00730018 -0.00557427 -0.00643686 -0.00614355 -0.00705921 -0.00643686 -0.00730018 -0.00705921 -0.00797562 -0.0090161 -0.0101075 -0.00730018 -0.008148 -0.0101075 -0.0111584 -0.008148 -0.00896325 -0.00730018 -0.008148 -0.00797562 -0.00887541 -0.008148 -0.00896325 -0.00887541 -0.00974038 -0.00614355 -0.00705921 -0.00601884 -0.00689815 -0.00705921 -0.00797562 -0.00689815 -0.00777906 -0.00601884 -0.00689815 -0.00599808 -0.00687698 -0.00689815 -0.00777906 -0.00687698 -0.00775907 -0.00797562 -0.00887541 -0.00777906 -0.00864474 -0.00887541 -0.00974038 -0.00864474 -0.00947757 -0.00777906 -0.00864474 -0.00775907 -0.00862736 -0.00864474 -0.00947757 -0.00862736 -0.00946405 -0.0111584 -0.0121461 -0.00896325 -0.0097284 -0.0121461 -0.0130475 -0.0097284 -0.0104259 -0.00896325 -0.0097284 -0.00974038 -0.010552 -0.0097284 -0.0104259 -0.010552 -0.0112918 -0.0130475 -0.0138398 -0.0104259 -0.0110388 -0.0138398 -0.0145012 -0.0110388 -0.0115515 -0.0104259 -0.0110388 -0.0112918 -0.0119424 -0.0110388 -0.0115515 -0.0119424 -0.0124881 -0.00974038 -0.010552 -0.00947757 -0.0102596 -0.010552 -0.0112918 -0.0102596 -0.0109731 -0.00947757 -0.0102596 -0.00946405 -0.0102509 -0.0102596 -0.0109731 -0.0102509 -0.0109698 -0.0112918 -0.0119424 -0.0109731 -0.0116014 -0.0119424 -0.0124881 -0.0116014 -0.0121297 -0.0109731 -0.0116014 -0.0109698 -0.0116038 -0.0116014 -0.0121297 -0.0116038 -0.0121378 -0.00599808 -0.00687698 -0.00592539 -0.0068158 -0.00687698 -0.00775907 -0.0068158 -0.00771164 -0.00592539 -0.0068158 -0.00582345 -0.00674155 -0.0068158 -0.00771164 -0.00674155 -0.00766804 -0.00775907 -0.00862736 -0.00771164 -0.00859558 -0.00862736 -0.00946405 -0.00859558 -0.00944928 -0.00771164 -0.00859558 -0.00766804 -0.00858495 -0.00859558 -0.00944928 -0.00858495 -0.00947297 -0.00582345 -0.00674155 -0.00568158 -0.00664311 -0.00674155 -0.00766804 -0.00664311 -0.00761685 -0.00568158 -0.00664311 -0.0054926 -0.00651388 -0.00664311 -0.00761685 -0.00651388 -0.00755225 -0.00766804 -0.00858495 -0.00761685 -0.00858383 -0.00858495 -0.00947297 -0.00858383 -0.00952347 -0.00761685 -0.00858383 -0.00755225 -0.00858751 -0.00858383 -0.00952347 -0.00858751 -0.00959737 -0.00946405 -0.0102509 -0.00944928 -0.0102538 -0.0102509 -0.0109698 -0.0102538 -0.0109902 -0.00944928 -0.0102538 -0.00947297 -0.010312 -0.0102538 -0.0109902 -0.010312 -0.0110817 -0.0109698 -0.0116038 -0.0109902 -0.0116407 -0.0116038 -0.0121378 -0.0116407 -0.0121891 -0.0109902 -0.0116407 -0.0110817 -0.0117626 -0.0116407 -0.0121891 -0.0117626 -0.012337 -0.00947297 -0.010312 -0.00952347 -0.0104139 -0.010312 -0.0110817 -0.0104139 -0.011233 -0.00952347 -0.0104139 -0.00959737 -0.0105578 -0.0104139 -0.011233 -0.0105578 -0.011444 -0.0110817 -0.0117626 -0.011233 -0.0119589 -0.0117626 -0.012337 -0.0119589 -0.0125717 -0.011233 -0.0119589 -0.011444 -0.0122313 -0.0119589 -0.0125717 -0.0122313 -0.0128967 -0.0145012 -0.0150122 -0.0115515 -0.0119507 -0.0150122 -0.0153566 -0.0119507 -0.0122276 -0.0115515 -0.0119507 -0.0124881 -0.0129161 -0.0119507 -0.0122276 -0.0129161 -0.0132186 -0.0153566 -0.0155264 -0.0122276 -0.0123762 -0.0155264 -0.0155162 -0.0123762 -0.0124145 -0.0122276 -0.0123762 -0.0132186 -0.0133917 -0.0123762 -0.0124145 -0.0133917 -0.0134516 -0.0124881 -0.0129161 -0.0121297 -0.0125462 -0.0129161 -0.0132186 -0.0125462 -0.0128437 -0.0121297 -0.0125462 -0.0121378 -0.0125596 -0.0125462 -0.0128437 -0.0125596 -0.0128616 -0.0132186 -0.0133917 -0.0128437 -0.0130186 -0.0133917 -0.0134516 -0.0130186 -0.0130858 -0.0128437 -0.0130186 -0.0128616 -0.0130389 -0.0130186 -0.0130858 -0.0130389 -0.0131044 -0.0155162 -0.01538 -0.0124145 -0.0122951 -0.01538 -0.0151148 -0.0122951 -0.0123973 -0.0124145 -0.0122951 -0.0134516 -0.0133598 -0.0122951 -0.0123973 -0.0133598 -0.0134554 -0.0151148 -0.0141406 -0.0123973 -0.0110456 -0.0141406 -0.0154011 -0.0110456 -0.0139505 -0.0123973 -0.0110456 -0.0134554 -0.0121153 -0.0110456 -0.0139505 -0.0121153 -0.014399 -0.0134516 -0.0133598 -0.0130858 -0.0129997 -0.0133598 -0.0134554 -0.0129997 -0.013099 -0.0130858 -0.0129997 -0.0131044 -0.0130098 -0.0129997 -0.013099 -0.0130098 -0.0130803 -0.0134554 -0.0121153 -0.013099 -0.011723 -0.0121153 -0.014399 -0.011723 -0.0141231 -0.013099 -0.011723 -0.0130803 -0.0116734 -0.011723 -0.0141231 -0.0116734 -0.0139008 -0.0121378 -0.0125596 -0.0121891 -0.0126222 -0.0125596 -0.0128616 -0.0126222 -0.0129312 -0.0121891 -0.0126222 -0.012337 -0.0127901 -0.0126222 -0.0129312 -0.0127901 -0.0131116 -0.0128616 -0.0130389 -0.0129312 -0.0131101 -0.0130389 -0.0131044 -0.0131101 -0.0131696 -0.0129312 -0.0131101 -0.0131116 -0.0132939 -0.0131101 -0.0131696 -0.0132939 -0.0133465 -0.012337 -0.0127901 -0.0125717 -0.0130544 -0.0127901 -0.0131116 -0.0130544 -0.0133949 -0.0125717 -0.0130544 -0.0128967 -0.0134204 -0.0130544 -0.0133949 -0.0134204 -0.0137881 -0.0131116 -0.0132939 -0.0133949 -0.013584 -0.0132939 -0.0133465 -0.013584 -0.0136307 -0.0133949 -0.013584 -0.0137881 -0.013989 -0.013584 -0.0136307 -0.013989 -0.0140319 -0.0131044 -0.0130098 -0.0131696 -0.013059 -0.0130098 -0.0130803 -0.013059 -0.0130999 -0.0131696 -0.013059 -0.0133465 -0.0132171 -0.013059 -0.0130999 -0.0132171 -0.0132288 -0.0130803 -0.0116734 -0.0130999 -0.0116495 -0.0116734 -0.0139008 -0.0116495 -0.013824 -0.0130999 -0.0116495 -0.0132288 -0.0117313 -0.0116495 -0.013824 -0.0117313 -0.013869 -0.0133465 -0.0132171 -0.0136307 -0.0134819 -0.0132171 -0.0132288 -0.0134819 -0.0134664 -0.0136307 -0.0134819 -0.0140319 -0.0138632 -0.0134819 -0.0134664 -0.0138632 -0.0138215 -0.0132288 -0.0117313 -0.0134664 -0.0119128 -0.0117313 -0.013869 -0.0119128 -0.0140439 -0.0134664 -0.0119128 -0.0138215 -0.0122002 -0.0119128 -0.0140439 -0.0122002 -0.0143462 -0.0054926 -0.00651388 -0.00524533 -0.00634317 -0.00651388 -0.00755225 -0.00634317 -0.00746437 -0.00524533 -0.00634317 -0.00492502 -0.00611669 -0.00634317 -0.00746437 -0.00611669 -0.0073399 -0.00755225 -0.00858751 -0.00746437 -0.00858733 -0.00858751 -0.00959737 -0.00858733 -0.0096877 -0.00746437 -0.00858733 -0.0073399 -0.00857151 -0.00858733 -0.0096877 -0.00857151 -0.00978475 -0.00492502 -0.00611669 -0.00451236 -0.00581544 -0.00611669 -0.0073399 -0.00581544 -0.00716074 -0.00451236 -0.00581544 -0.00398277 -0.00541476 -0.00581544 -0.00716074 -0.00541476 -0.00690284 -0.0073399 -0.00857151 -0.00716074 -0.00852359 -0.00857151 -0.00978475 -0.00852359 -0.00987456 -0.00716074 -0.00852359 -0.00690284 -0.00842102 -0.00852359 -0.00987456 -0.00842102 -0.00993717 -0.00959737 -0.0105578 -0.0096877 -0.0107387 -0.0105578 -0.011444 -0.0107387 -0.0117122 -0.0096877 -0.0107387 -0.00978475 -0.0109496 -0.0107387 -0.0117122 -0.0109496 -0.0120338 -0.011444 -0.0122313 -0.0117122 -0.0125798 -0.0122313 -0.0128967 -0.0125798 -0.0133146 -0.0117122 -0.0125798 -0.0120338 -0.0130041 -0.0125798 -0.0133146 -0.0130041 -0.0138285 -0.00978475 -0.0109496 -0.00987456 -0.0111798 -0.0109496 -0.0120338 -0.0111798 -0.0124021 -0.00987456 -0.0111798 -0.00993717 -0.0114132 -0.0111798 -0.0124021 -0.0114132 -0.0128059 -0.0120338 -0.0130041 -0.0124021 -0.0135021 -0.0130041 -0.0138285 -0.0135021 -0.0144412 -0.0124021 -0.0135021 -0.0128059 -0.0140684 -0.0135021 -0.0144412 -0.0140684 -0.0151536 -0.00398277 -0.00541476 -0.00330565 -0.00488324 -0.00541476 -0.00690284 -0.00488324 -0.00653471 -0.00330565 -0.00488324 -0.00244372 -0.00418166 -0.00488324 -0.00653471 -0.00418166 -0.00601591 -0.00690284 -0.00842102 -0.00653471 -0.0082333 -0.00842102 -0.00993717 -0.0082333 -0.00994449 -0.00653471 -0.0082333 -0.00601591 -0.00791993 -0.0082333 -0.00994449 -0.00791993 -0.00985768 -0.00244372 -0.00418166 -0.00135273 -0.0032622 -0.00418166 -0.00601591 -0.0032622 -0.00529549 -0.00135273 -0.0032622 1.81787e-05 -0.00206831 -0.0032622 -0.00529549 -0.00206831 -0.00431111 -0.00601591 -0.00791993 -0.00529549 -0.00742795 -0.00791993 -0.00985768 -0.00742795 -0.00962365 -0.00529549 -0.00742795 -0.00431111 -0.00668989 -0.00742795 -0.00962365 -0.00668989 -0.00917157 -0.00993717 -0.0114132 -0.0099