# vtk DataFile Version 3.0
#This file was generated by the deal.II library on 2026/1/5 at 14:19:36
ASCII
DATASET UNSTRUCTURED_GRID

POINTS 4096 double
0 0 0
0.03125 0 0
0 0.03125 0
0.03125 0.03125 0
0.03125 0 0
0.0625 0 0
0.03125 0.03125 0
0.0625 0.03125 0
0 0.03125 0
0.03125 0.03125 0
0 0.0625 0
0.03125 0.0625 0
0.03125 0.03125 0
0.0625 0.03125 0
0.03125 0.0625 0
0.0625 0.0625 0
0.0625 0 0
0.09375 0 0
0.0625 0.03125 0
0.09375 0.03125 0
0.09375 0 0
0.125 0 0
0.09375 0.03125 0
0.125 0.03125 0
0.0625 0.03125 0
0.09375 0.03125 0
0.0625 0.0625 0
0.09375 0.0625 0
0.09375 0.03125 0
0.125 0.03125 0
0.09375 0.0625 0
0.125 0.0625 0
0 0.0625 0
0.03125 0.0625 0
0 0.09375 0
0.03125 0.09375 0
0.03125 0.0625 0
0.0625 0.0625 0
0.03125 0.09375 0
0.0625 0.09375 0
0 0.09375 0
0.03125 0.09375 0
0 0.125 0
0.03125 0.125 0
0.03125 0.09375 0
0.0625 0.09375 0
0.03125 0.125 0
0.0625 0.125 0
0.0625 0.0625 0
0.09375 0.0625 0
0.0625 0.09375 0
0.09375 0.09375 0
0.09375 0.0625 0
0.125 0.0625 0
0.09375 0.09375 0
0.125 0.09375 0
0.0625 0.09375 0
0.09375 0.09375 0
0.0625 0.125 0
0.09375 0.125 0
0.09375 0.09375 0
0.125 0.09375 0
0.09375 0.125 0
0.125 0.125 0
0.125 0 0
0.15625 0 0
0.125 0.03125 0
0.15625 0.03125 0
0.15625 0 0
0.1875 0 0
0.15625 0.03125 0
0.1875 0.03125 0
0.125 0.03125 0
0.15625 0.03125 0
0.125 0.0625 0
0.15625 0.0625 0
0.15625 0.03125 0
0.1875 0.03125 0
0.15625 0.0625 0
0.1875 0.0625 0
0.1875 0 0
0.21875 0 0
0.1875 0.03125 0
0.21875 0.03125 0
0.21875 0 0
0.25 0 0
0.21875 0.03125 0
0.25 0.03125 0
0.1875 0.03125 0
0.21875 0.03125 0
0.1875 0.0625 0
0.21875 0.0625 0
0.21875 0.03125 0
0.25 0.03125 0
0.21875 0.0625 0
0.25 0.0625 0
0.125 0.0625 0
0.15625 0.0625 0
0.125 0.09375 0
0.15625 0.09375 0
0.15625 0.0625 0
0.1875 0.0625 0
0.15625 0.09375 0
0.1875 0.09375 0
0.125 0.09375 0
0.15625 0.09375 0
0.125 0.125 0
0.15625 0.125 0
0.15625 0.09375 0
0.1875 0.09375 0
0.15625 0.125 0
0.1875 0.125 0
0.1875 0.0625 0
0.21875 0.0625 0
0.1875 0.09375 0
0.21875 0.09375 0
0.21875 0.0625 0
0.25 0.0625 0
0.21875 0.09375 0
0.25 0.09375 0
0.1875 0.09375 0
0.21875 0.09375 0
0.1875 0.125 0
0.21875 0.125 0
0.21875 0.09375 0
0.25 0.09375 0
0.21875 0.125 0
0.25 0.125 0
0 0.125 0
0.03125 0.125 0
0 0.15625 0
0.03125 0.15625 0
0.03125 0.125 0
0.0625 0.125 0
0.03125 0.15625 0
0.0625 0.15625 0
0 0.15625 0
0.03125 0.15625 0
0 0.1875 0
0.03125 0.1875 0
0.03125 0.15625 0
0.0625 0.15625 0
0.03125 0.1875 0
0.0625 0.1875 0
0.0625 0.125 0
0.09375 0.125 0
0.0625 0.15625 0
0.09375 0.15625 0
0.09375 0.125 0
0.125 0.125 0
0.09375 0.15625 0
0.125 0.15625 0
0.0625 0.15625 0
0.09375 0.15625 0
0.0625 0.1875 0
0.09375 0.1875 0
0.09375 0.15625 0
0.125 0.15625 0
0.09375 0.1875 0
0.125 0.1875 0
0 0.1875 0
0.03125 0.1875 0
0 0.21875 0
0.03125 0.21875 0
0.03125 0.1875 0
0.0625 0.1875 0
0.03125 0.21875 0
0.0625 0.21875 0
0 0.21875 0
0.03125 0.21875 0
0 0.25 0
0.03125 0.25 0
0.03125 0.21875 0
0.0625 0.21875 0
0.03125 0.25 0
0.0625 0.25 0
0.0625 0.1875 0
0.09375 0.1875 0
0.0625 0.21875 0
0.09375 0.21875 0
0.09375 0.1875 0
0.125 0.1875 0
0.09375 0.21875 0
0.125 0.21875 0
0.0625 0.21875 0
0.09375 0.21875 0
0.0625 0.25 0
0.09375 0.25 0
0.09375 0.21875 0
0.125 0.21875 0
0.09375 0.25 0
0.125 0.25 0
0.125 0.125 0
0.15625 0.125 0
0.125 0.15625 0
0.15625 0.15625 0
0.15625 0.125 0
0.1875 0.125 0
0.15625 0.15625 0
0.1875 0.15625 0
0.125 0.15625 0
0.15625 0.15625 0
0.125 0.1875 0
0.15625 0.1875 0
0.15625 0.15625 0
0.1875 0.15625 0
0.15625 0.1875 0
0.1875 0.1875 0
0.1875 0.125 0
0.21875 0.125 0
0.1875 0.15625 0
0.21875 0.15625 0
0.21875 0.125 0
0.25 0.125 0
0.21875 0.15625 0
0.25 0.15625 0
0.1875 0.15625 0
0.21875 0.15625 0
0.1875 0.1875 0
0.21875 0.1875 0
0.21875 0.15625 0
0.25 0.15625 0
0.21875 0.1875 0
0.25 0.1875 0
0.125 0.1875 0
0.15625 0.1875 0
0.125 0.21875 0
0.15625 0.21875 0
0.15625 0.1875 0
0.1875 0.1875 0
0.15625 0.21875 0
0.1875 0.21875 0
0.125 0.21875 0
0.15625 0.21875 0
0.125 0.25 0
0.15625 0.25 0
0.15625 0.21875 0
0.1875 0.21875 0
0.15625 0.25 0
0.1875 0.25 0
0.1875 0.1875 0
0.21875 0.1875 0
0.1875 0.21875 0
0.21875 0.21875 0
0.21875 0.1875 0
0.25 0.1875 0
0.21875 0.21875 0
0.25 0.21875 0
0.1875 0.21875 0
0.21875 0.21875 0
0.1875 0.25 0
0.21875 0.25 0
0.21875 0.21875 0
0.25 0.21875 0
0.21875 0.25 0
0.25 0.25 0
0.25 0 0
0.28125 0 0
0.25 0.03125 0
0.28125 0.03125 0
0.28125 0 0
0.3125 0 0
0.28125 0.03125 0
0.3125 0.03125 0
0.25 0.03125 0
0.28125 0.03125 0
0.25 0.0625 0
0.28125 0.0625 0
0.28125 0.03125 0
0.3125 0.03125 0
0.28125 0.0625 0
0.3125 0.0625 0
0.3125 0 0
0.34375 0 0
0.3125 0.03125 0
0.34375 0.03125 0
0.34375 0 0
0.375 0 0
0.34375 0.03125 0
0.375 0.03125 0
0.3125 0.03125 0
0.34375 0.03125 0
0.3125 0.0625 0
0.34375 0.0625 0
0.34375 0.03125 0
0.375 0.03125 0
0.34375 0.0625 0
0.375 0.0625 0
0.25 0.0625 0
0.28125 0.0625 0
0.25 0.09375 0
0.28125 0.09375 0
0.28125 0.0625 0
0.3125 0.0625 0
0.28125 0.09375 0
0.3125 0.09375 0
0.25 0.09375 0
0.28125 0.09375 0
0.25 0.125 0
0.28125 0.125 0
0.28125 0.09375 0
0.3125 0.09375 0
0.28125 0.125 0
0.3125 0.125 0
0.3125 0.0625 0
0.34375 0.0625 0
0.3125 0.09375 0
0.34375 0.09375 0
0.34375 0.0625 0
0.375 0.0625 0
0.34375 0.09375 0
0.375 0.09375 0
0.3125 0.09375 0
0.34375 0.09375 0
0.3125 0.125 0
0.34375 0.125 0
0.34375 0.09375 0
0.375 0.09375 0
0.34375 0.125 0
0.375 0.125 0
0.375 0 0
0.40625 0 0
0.375 0.03125 0
0.40625 0.03125 0
0.40625 0 0
0.4375 0 0
0.40625 0.03125 0
0.4375 0.03125 0
0.375 0.03125 0
0.40625 0.03125 0
0.375 0.0625 0
0.40625 0.0625 0
0.40625 0.03125 0
0.4375 0.03125 0
0.40625 0.0625 0
0.4375 0.0625 0
0.4375 0 0
0.46875 0 0
0.4375 0.03125 0
0.46875 0.03125 0
0.46875 0 0
0.5 0 0
0.46875 0.03125 0
0.5 0.03125 0
0.4375 0.03125 0
0.46875 0.03125 0
0.4375 0.0625 0
0.46875 0.0625 0
0.46875 0.03125 0
0.5 0.03125 0
0.46875 0.0625 0
0.5 0.0625 0
0.375 0.0625 0
0.40625 0.0625 0
0.375 0.09375 0
0.40625 0.09375 0
0.40625 0.0625 0
0.4375 0.0625 0
0.40625 0.09375 0
0.4375 0.09375 0
0.375 0.09375 0
0.40625 0.09375 0
0.375 0.125 0
0.40625 0.125 0
0.40625 0.09375 0
0.4375 0.09375 0
0.40625 0.125 0
0.4375 0.125 0
0.4375 0.0625 0
0.46875 0.0625 0
0.4375 0.09375 0
0.46875 0.09375 0
0.46875 0.0625 0
0.5 0.0625 0
0.46875 0.09375 0
0.5 0.09375 0
0.4375 0.09375 0
0.46875 0.09375 0
0.4375 0.125 0
0.46875 0.125 0
0.46875 0.09375 0
0.5 0.09375 0
0.46875 0.125 0
0.5 0.125 0
0.25 0.125 0
0.28125 0.125 0
0.25 0.15625 0
0.28125 0.15625 0
0.28125 0.125 0
0.3125 0.125 0
0.28125 0.15625 0
0.3125 0.15625 0
0.25 0.15625 0
0.28125 0.15625 0
0.25 0.1875 0
0.28125 0.1875 0
0.28125 0.15625 0
0.3125 0.15625 0
0.28125 0.1875 0
0.3125 0.1875 0
0.3125 0.125 0
0.34375 0.125 0
0.3125 0.15625 0
0.34375 0.15625 0
0.34375 0.125 0
0.375 0.125 0
0.34375 0.15625 0
0.375 0.15625 0
0.3125 0.15625 0
0.34375 0.15625 0
0.3125 0.1875 0
0.34375 0.1875 0
0.34375 0.15625 0
0.375 0.15625 0
0.34375 0.1875 0
0.375 0.1875 0
0.25 0.1875 0
0.28125 0.1875 0
0.25 0.21875 0
0.28125 0.21875 0
0.28125 0.1875 0
0.3125 0.1875 0
0.28125 0.21875 0
0.3125 0.21875 0
0.25 0.21875 0
0.28125 0.21875 0
0.25 0.25 0
0.28125 0.25 0
0.28125 0.21875 0
0.3125 0.21875 0
0.28125 0.25 0
0.3125 0.25 0
0.3125 0.1875 0
0.34375 0.1875 0
0.3125 0.21875 0
0.34375 0.21875 0
0.34375 0.1875 0
0.375 0.1875 0
0.34375 0.21875 0
0.375 0.21875 0
0.3125 0.21875 0
0.34375 0.21875 0
0.3125 0.25 0
0.34375 0.25 0
0.34375 0.21875 0
0.375 0.21875 0
0.34375 0.25 0
0.375 0.25 0
0.375 0.125 0
0.40625 0.125 0
0.375 0.15625 0
0.40625 0.15625 0
0.40625 0.125 0
0.4375 0.125 0
0.40625 0.15625 0
0.4375 0.15625 0
0.375 0.15625 0
0.40625 0.15625 0
0.375 0.1875 0
0.40625 0.1875 0
0.40625 0.15625 0
0.4375 0.15625 0
0.40625 0.1875 0
0.4375 0.1875 0
0.4375 0.125 0
0.46875 0.125 0
0.4375 0.15625 0
0.46875 0.15625 0
0.46875 0.125 0
0.5 0.125 0
0.46875 0.15625 0
0.5 0.15625 0
0.4375 0.15625 0
0.46875 0.15625 0
0.4375 0.1875 0
0.46875 0.1875 0
0.46875 0.15625 0
0.5 0.15625 0
0.46875 0.1875 0
0.5 0.1875 0
0.375 0.1875 0
0.40625 0.1875 0
0.375 0.21875 0
0.40625 0.21875 0
0.40625 0.1875 0
0.4375 0.1875 0
0.40625 0.21875 0
0.4375 0.21875 0
0.375 0.21875 0
0.40625 0.21875 0
0.375 0.25 0
0.40625 0.25 0
0.40625 0.21875 0
0.4375 0.21875 0
0.40625 0.25 0
0.4375 0.25 0
0.4375 0.1875 0
0.46875 0.1875 0
0.4375 0.21875 0
0.46875 0.21875 0
0.46875 0.1875 0
0.5 0.1875 0
0.46875 0.21875 0
0.5 0.21875 0
0.4375 0.21875 0
0.46875 0.21875 0
0.4375 0.25 0
0.46875 0.25 0
0.46875 0.21875 0
0.5 0.21875 0
0.46875 0.25 0
0.5 0.25 0
0 0.25 0
0.03125 0.25 0
0 0.28125 0
0.03125 0.28125 0
0.03125 0.25 0
0.0625 0.25 0
0.03125 0.28125 0
0.0625 0.28125 0
0 0.28125 0
0.03125 0.28125 0
0 0.3125 0
0.03125 0.3125 0
0.03125 0.28125 0
0.0625 0.28125 0
0.03125 0.3125 0
0.0625 0.3125 0
0.0625 0.25 0
0.09375 0.25 0
0.0625 0.28125 0
0.09375 0.28125 0
0.09375 0.25 0
0.125 0.25 0
0.09375 0.28125 0
0.125 0.28125 0
0.0625 0.28125 0
0.09375 0.28125 0
0.0625 0.3125 0
0.09375 0.3125 0
0.09375 0.28125 0
0.125 0.28125 0
0.09375 0.3125 0
0.125 0.3125 0
0 0.3125 0
0.03125 0.3125 0
0 0.34375 0
0.03125 0.34375 0
0.03125 0.3125 0
0.0625 0.3125 0
0.03125 0.34375 0
0.0625 0.34375 0
0 0.34375 0
0.03125 0.34375 0
0 0.375 0
0.03125 0.375 0
0.03125 0.34375 0
0.0625 0.34375 0
0.03125 0.375 0
0.0625 0.375 0
0.0625 0.3125 0
0.09375 0.3125 0
0.0625 0.34375 0
0.09375 0.34375 0
0.09375 0.3125 0
0.125 0.3125 0
0.09375 0.34375 0
0.125 0.34375 0
0.0625 0.34375 0
0.09375 0.34375 0
0.0625 0.375 0
0.09375 0.375 0
0.09375 0.34375 0
0.125 0.34375 0
0.09375 0.375 0
0.125 0.375 0
0.125 0.25 0
0.15625 0.25 0
0.125 0.28125 0
0.15625 0.28125 0
0.15625 0.25 0
0.1875 0.25 0
0.15625 0.28125 0
0.1875 0.28125 0
0.125 0.28125 0
0.15625 0.28125 0
0.125 0.3125 0
0.15625 0.3125 0
0.15625 0.28125 0
0.1875 0.28125 0
0.15625 0.3125 0
0.1875 0.3125 0
0.1875 0.25 0
0.21875 0.25 0
0.1875 0.28125 0
0.21875 0.28125 0
0.21875 0.25 0
0.25 0.25 0
0.21875 0.28125 0
0.25 0.28125 0
0.1875 0.28125 0
0.21875 0.28125 0
0.1875 0.3125 0
0.21875 0.3125 0
0.21875 0.28125 0
0.25 0.28125 0
0.21875 0.3125 0
0.25 0.3125 0
0.125 0.3125 0
0.15625 0.3125 0
0.125 0.34375 0
0.15625 0.34375 0
0.15625 0.3125 0
0.1875 0.3125 0
0.15625 0.34375 0
0.1875 0.34375 0
0.125 0.34375 0
[...]
POINT_DATA 4096
SCALARS p double 1
LOOKUP_TABLE default
-2.47602e-05 4.54351e-05 -0.000121283 -3.6239e-05 4.54351e-05 0.000286611 -3.6239e-05 9.47098e-05 -0.000121283 -3.6239e-05 -0.000372537 -0.000172851 -3.6239e-05 9.47098e-05 -0.000172851 -3.74869e-05 0.000286611 0.000548896 9.47098e-05 0.000239421 0.000548896 0.000735651 0.000239421 0.000336076 9.47098e-05 0.000239421 -3.74869e-05 9.83817e-05 0.000239421 0.000336076 9.83817e-05 0.000173485 -0.000372537 -0.000172851 -0.000649694 -0.000322351 -0.000172851 -3.74869e-05 -0.000322351 -0.000169394 -0.000649694 -0.000322351 -0.000859384 -0.000423781 -0.000322351 -0.000169394 -0.000423781 -0.000236509 -3.74869e-05 9.83817e-05 -0.000169394 -2.82183e-05 9.83817e-05 0.000173485 -2.82183e-05 3.54456e-05 -0.000169394 -2.82183e-05 -0.000236509 -7.14328e-05 -2.82183e-05 3.54456e-05 -7.14328e-05 -1.66366e-06 0.000735651 0.000801353 0.000336076 0.0003546 0.000801353 0.000729668 0.0003546 0.000279328 0.000336076 0.0003546 0.000173485 0.000170457 0.0003546 0.000279328 0.000170457 7.48491e-05 0.000729668 0.000518425 0.000279328 0.000104957 0.000518425 0.000172557 0.000104957 -0.000168057 0.000279328 0.000104957 7.48491e-05 -0.000119138 0.000104957 -0.000168057 -0.000119138 -0.00041249 0.000173485 0.000170457 3.54456e-05 2.13842e-05 0.000170457 7.48491e-05 2.13842e-05 -7.96698e-05 3.54456e-05 2.13842e-05 -1.66366e-06 -1.56262e-05 2.13842e-05 -7.96698e-05 -1.56262e-05 -0.000117985 7.48491e-05 -0.000119138 -7.96698e-05 -0.000271157 -0.000119138 -0.00041249 -0.000271157 -0.000553936 -7.96698e-05 -0.000271157 -0.000117985 -0.000309356 -0.000271157 -0.000553936 -0.000309356 -0.000589563 -0.000859384 -0.000423781 -0.000953535 -0.000443582 -0.000423781 -0.000236509 -0.000443582 -0.000216011 -0.000953535 -0.000443582 -0.00090857 -0.000359533 -0.000443582 -0.000216011 -0.000359533 -8.52335e-05 -0.000236509 -7.14328e-05 -0.000216011 -2.40458e-05 -7.14328e-05 -1.66366e-06 -2.40458e-05 5.88957e-05 -0.000216011 -2.40458e-05 -8.52335e-05 0.000132399 -2.40458e-05 5.88957e-05 0.000132399 0.000231874 -0.00090857 -0.000359533 -0.000711664 -0.000157319 -0.000359533 -8.52335e-05 -0.000157319 0.000172118 -0.000711664 -0.000157319 -0.000354494 0.000173616 -0.000157319 0.000172118 0.000173616 0.000569391 -8.52335e-05 0.000132399 0.000172118 0.000412308 0.000132399 0.000231874 0.000412308 0.000529374 0.000172118 0.000412308 0.000569391 0.00082893 0.000412308 0.000529374 0.00082893 0.000963833 -1.66366e-06 -1.56262e-05 5.88957e-05 5.09689e-05 -1.56262e-05 -0.000117985 5.09689e-05 -4.87231e-05 5.88957e-05 5.09689e-05 0.000231874 0.000232844 5.09689e-05 -4.87231e-05 0.000232844 0.000137442 -0.000117985 -0.000309356 -4.87231e-05 -0.000238327 -0.000309356 -0.000589563 -0.000238327 -0.000516431 -4.87231e-05 -0.000238327 0.000137442 -5.06707e-05 -0.000238327 -0.000516431 -5.06707e-05 -0.000328989 0.000231874 0.000232844 0.000529374 0.000539977 0.000232844 0.000137442 0.000539977 0.000448968 0.000529374 0.000539977 0.000963833 0.000983706 0.000539977 0.000448968 0.000983706 0.000896184 0.000137442 -5.06707e-05 0.000448968 0.000261209 -5.06707e-05 -0.000328989 0.000261209 -1.99501e-05 0.000448968 0.000261209 0.000896184 0.000706878 0.000261209 -1.99501e-05 0.000706878 0.000419772 0.000172557 -0.000299795 -0.000168057 -0.000535929 -0.000299795 -0.000889153 -0.000535929 -0.000993039 -0.000168057 -0.000535929 -0.00041249 -0.000802774 -0.000535929 -0.000993039 -0.000802774 -0.0012854 -0.000889153 -0.00158539 -0.000993039 -0.00153251 -0.00158539 -0.00237781 -0.00153251 -0.00214651 -0.000993039 -0.00153251 -0.0012854 -0.00185408 -0.00153251 -0.00214651 -0.00185408 -0.00250118 -0.00041249 -0.000802774 -0.000553936 -0.000926363 -0.000802774 -0.0012854 -0.000926363 -0.001385 -0.000553936 -0.000926363 -0.000589563 -0.000956924 -0.000926363 -0.001385 -0.000956924 -0.00140847 -0.0012854 -0.00185408 -0.001385 -0.00192473 -0.00185408 -0.00250118 -0.00192473 -0.00253902 -0.001385 -0.00192473 -0.00140847 -0.00193978 -0.00192473 -0.00253902 -0.00193978 -0.00254503 -0.00237781 -0.00325485 -0.00214651 -0.00282615 -0.00325485 -0.00420369 -0.00282615 -0.00356141 -0.00214651 -0.00282615 -0.00250118 -0.00321764 -0.00282615 -0.00356141 -0.00321764 -0.00399305 -0.00420369 -0.00520996 -0.00356141 -0.0043409 -0.00520996 -0.00625748 -0.0043409 -0.0051518 -0.00356141 -0.0043409 -0.00399305 -0.00481535 -0.0043409 -0.0051518 -0.00481535 -0.00567098 -0.00250118 -0.00321764 -0.00253902 -0.00321978 -0.00321764 -0.00399305 -0.00321978 -0.00395743 -0.00253902 -0.00321978 -0.00254503 -0.00321682 -0.00321978 -0.00395743 -0.00321682 -0.00394617 -0.00399305 -0.00481535 -0.00395743 -0.00474072 -0.00481535 -0.00567098 -0.00474072 -0.00555681 -0.00395743 -0.00474072 -0.00394617 -0.00472229 -0.00474072 -0.00555681 -0.00472229 -0.00553268 -0.000589563 -0.000956924 -0.000516431 -0.000881017 -0.000956924 -0.00140847 -0.000881017 -0.00132931 -0.000516431 -0.000881017 -0.000328989 -0.0006951 -0.000881017 -0.00132931 -0.0006951 -0.00114627 -0.00140847 -0.00193978 -0.00132931 -0.00185739 -0.00193978 -0.00254503 -0.00185739 -0.00246008 -0.00132931 -0.00185739 -0.00114627 -0.00167896 -0.00185739 -0.00246008 -0.00167896 -0.0022885 -0.000328989 -0.0006951 -1.99501e-05 -0.000391782 -0.0006951 -0.00114627 -0.000391782 -0.000851586 -1.99501e-05 -0.000391782 0.000419772 3.78078e-05 -0.000391782 -0.000851586 3.78078e-05 -0.000436427 -0.00114627 -0.00167896 -0.000851586 -0.00139616 -0.00167896 -0.0022885 -0.00139616 -0.00202131 -0.000851586 -0.00139616 -0.000436427 -0.00100009 -0.00139616 -0.00202131 -0.00100009 -0.00164947 -0.00254503 -0.00321682 -0.00246008 -0.00313059 -0.00321682 -0.00394617 -0.00313059 -0.00386052 -0.00246008 -0.00313059 -0.0022885 -0.00296868 -0.00313059 -0.00386052 -0.00296868 -0.00371158 -0.00394617 -0.00472229 -0.00386052 -0.0046395 -0.00472229 -0.00553268 -0.0046395 -0.00545533 -0.00386052 -0.0046395 -0.00371158 -0.00450721 -0.0046395 -0.00545533 -0.00450721 -0.00534354 -0.0022885 -0.00296868 -0.00202131 -0.00272138 -0.00296868 -0.00371158 -0.00272138 -0.00348892 -0.00202131 -0.00272138 -0.00164947 -0.00237949 -0.00272138 -0.00348892 -0.00237949 -0.00318324 -0.00371158 -0.00450721 -0.00348892 -0.00431429 -0.00450721 -0.00534354 -0.00431429 -0.00518554 -0.00348892 -0.00431429 -0.00318324 -0.00405144 -0.00431429 -0.00518554 -0.00405144 -0.00497222 -0.000354494 0.000173616 0.00017039 0.000642527 0.000173616 0.000569391 0.000642527 0.00111871 0.00017039 0.000642527 0.000871554 0.00125895 0.000642527 0.00111871 0.00125895 0.00183235 0.000569391 0.00082893 0.00111871 0.00139503 0.00082893 0.000963833 0.00139503 0.00154799 0.00111871 0.00139503 0.00183235 0.00212372 0.00139503 0.00154799 0.00212372 0.00229536 0.000871554 0.00125895 0.00175982 0.00203386 0.00125895 0.00183235 0.00203386 0.00272397 0.00175982 0.00203386 0.00284893 0.00298025 0.00203386 0.00272397 0.00298025 0.00380924 0.00183235 0.00212372 0.00272397 0.00302947 0.00212372 0.00229536 0.00302947 0.00322096 0.00272397 0.00302947 0.00380924 0.00412871 0.00302947 0.00322096 0.00412871 0.00434188 0.000963833 0.000983706 0.00154799 0.00157629 0.000983706 0.000896184 0.00157629 0.0014908 0.00154799 0.00157629 0.00229536 0.00233124 0.00157629 0.0014908 0.00233124 0.00224624 0.000896184 0.000706878 0.0014908 0.00129764 0.000706878 0.000419772 0.00129764 0.00100133 0.0014908 0.00129764 0.00224624 0.00204687 0.00129764 0.00100133 0.00204687 0.00173817 0.00229536 0.00233124 0.00322096 0.00326385 0.00233124 0.00224624 0.00326385 0.00317795 0.00322096 0.00326385 0.00434188 0.00439158 0.00326385 0.00317795 0.00439158 0.00430378 0.00224624 0.00204687 0.00317795 0.00297023 0.00204687 0.00173817 0.00297023 0.00264637 0.00317795 0.00297023 0.00430378 0.004086 0.00297023 0.00264637 0.004086 0.0037448 0.00284893 0.00298025 0.00415603 0.00411383 0.00298025 0.00380924 0.00411383 0.0051068 0.00415603 0.00411383 0.00570204 0.00545355 0.00411383 0.0051068 0.00545355 0.00663879 0.00380924 0.00412871 0.0051068 0.00544067 0.00412871 0.00434188 0.00544067 0.00567792 0.0051068 0.00544067 0.00663879 0.00698799 0.00544067 0.00567792 0.00698799 0.00725215 0.00570204 0.00545355 0.00751213 0.00702223 0.00545355 0.00663879 0.00702223 0.00843187 0.00751213 0.00702223 0.00961662 0.00884753 0.00702223 0.00843187 0.00884753 0.0105183 0.00663879 0.00698799 0.00843187 0.00879769 0.00698799 0.00725215 0.00879769 0.00909184 0.00843187 0.00879769 0.0105183 0.0109021 0.00879769 0.00909184 0.0109021 0.0112291 0.00434188 0.00439158 0.00567792 0.0057346 0.00439158 0.00430378 0.0057346 0.00564424 0.00567792 0.0057346 0.00725215 0.00731617 0.0057346 0.00564424 0.00731617 0.00722284 0.00430378 0.004086 0.00564424 0.00541524 0.004086 0.0037448 0.00541524 0.00505524 0.00564424 0.00541524 0.00722284 0.00698186 0.00541524 0.00505524 0.00698186 0.00660243 0.00725215 0.00731617 0.00909184 0.00916342 0.00731617 0.00722284 0.00916342 0.00906661 0.00909184 0.00916342 0.0112291 0.0113078 0.00916342 0.00906661 0.0113078 0.0112063 0.00722284 0.00698186 0.00906661 0.00881306 0.00698186 0.00660243 0.00881306 0.00841403 0.00906661 0.00881306 0.0112063 0.0109391 0.00881306 0.00841403 0.0109391 0.0105204 0.000419772 3.78078e-05 0.00100133 0.000604886 3.78078e-05 -0.000436427 0.000604886 0.000110705 0.00100133 0.000604886 0.00173817 0.00132322 0.000604886 0.000110705 0.00132322 0.000804089 -0.000436427 -0.00100009 0.000110705 -0.000478816 -0.00100009 -0.00164947 -0.000478816 -0.00116055 0.000110705 -0.000478816 0.000804089 0.000182599 -0.000478816 -0.00116055 0.000182599 -0.000538864 0.00173817 0.00132322 0.00264637 0.00220946 0.00132322 0.000804089 0.00220946 0.00166116 0.00264637 0.00220946 0.0037448 0.00328332 0.00220946 0.00166116 0.00328332 0.00270277 0.000804089 0.000182599 0.00166116 0.00100259 0.000182599 -0.000538864 0.00100259 0.000235169 0.00166116 0.00100259 0.00270277 0.00200337 0.00100259 0.000235169 0.00200337 0.00118533 -0.00164947 -0.00237949 -0.00116055 -0.00193011 -0.00237949 -0.00318324 -0.00193011 -0.00278121 -0.00116055 -0.00193011 -0.000538864 -0.00135678 -0.00193011 -0.00278121 -0.00135678 -0.00226568 -0.00318324 -0.00405144 -0.00278121 -0.00370508 -0.00405144 -0.00497222 -0.00370508 -0.00469 -0.00278121 -0.00370508 -0.00226568 -0.0032575 -0.00370508 -0.00469 -0.0032575 -0.00432093 -0.000538864 -0.00135678 0.000235169 -0.00063868 -0.00135678 -0.00226568 -0.00063868 -0.00161463 0.000235169 -0.00063868 0.00118533 0.000249637 -0.00063868 -0.00161463 0.000249637 -0.000800919 -0.00226568 -0.0032575 -0.00161463 -0.00268572 -0.0032575 -0.00432093 -0.00268572 -0.00384136 -0.00161463 -0.00268572 -0.000800919 -0.00196093 -0.00268572 -0.00384136 -0.00196093 -0.00322116 0.0037448 0.00328332 0.00505524 0.00456763 0.00328332 0.00270277 0.00456763 0.0039531 0.00505524 0.00456763 0.00660243 0.00608826 0.00456763 0.0039531 0.00608826 0.0054396 0.00270277 0.00200337 0.0039531 0.00321084 0.00200337 0.00118533 0.00321084 0.00233956 0.0039531 0.00321084 0.0054396 0.00465448 0.00321084 0.00233956 0.00465448 0.00372985 0.00660243 0.00608826 0.00841403 0.00787388 0.00608826 0.0054396 0.00787388 0.0071925 0.00841403 0.00787388 0.0105204 0.00995552 0.00787388 0.0071925 0.00995552 0.00924416 0.0054396 0.00465448 0.0071925 0.00636671 0.00465448 0.00372985 0.00636671 0.00539154 0.0071925 0.00636671 0.00924416 0.00838201 0.00636671 0.00539154 0.00838201 0.00736213 0.00118533 0.000249637 0.00233956 0.00133845 0.000249637 -0.000800919 0.00133845 0.000208267 0.00233956 0.00133845 0.00372985 0.00266274 0.00133845 0.000208267 0.00266274 0.0014513 -0.000800919 -0.00196093 0.000208267 -0.00104777 -0.00196093 -0.00322116 -0.00104777 -0.00242255 0.000208267 -0.00104777 0.0014513 9.58355e-05 -0.00104777 -0.00242255 9.58355e-05 -0.00139965 0.00372985 0.00266274 0.00539154 0.00426148 0.00266274 0.0014513 0.00426148 0.00297156 0.00539154 0.00426148 0.00736213 0.00617627 0.00426148 0.00297156 0.00617627 0.00481593 0.0014513 9.58355e-05 0.00297156 0.00151841 9.58355e-05 -0.00139965 0.00151841 -9.82189e-05 0.00297156 0.00151841 0.00481593 0.00327337 0.00151841 -9.82189e-05 0.00327337 0.00154294 -0.00625748 -0.00732815 -0.0051518 -0.00597982 -0.00732815 -0.00840195 -0.00597982 -0.00680925 -0.0051518 -0.00597982 -0.00567098 -0.00654469 -0.00597982 -0.00680925 -0.00654469 -0.00741979 -0.00840195 -0.00945713 -0.00680925 -0.00762315 -0.00945713 -0.0104705 -0.00762315 -0.0084036 -0.00680925 -0.00762315 -0.00741979 -0.00827828 -0.00762315 -0.0084036 -0.00827828 -0.00910125 -0.00567098 -0.00654469 -0.00555681 -0.00639118 -0.00654469 -0.00741979 -0.00639118 -0.00722781 -0.00555681 -0.00639118 -0.00553268 -0.00636303 -0.00639118 -0.00722781 -0.00636303 -0.00719742 -0.00741979 -0.00827828 -0.00722781 -0.00804939 -0.00827828 -0.00910125 -0.00804939 -0.00883771 -0.00722781 -0.00804939 -0.00719742 -0.00801846 -0.00804939 -0.00883771 -0.00801846 -0.00880776 -0.0104705 -0.0114178 -0.0084036 -0.00913216 -0.0114178 -0.0122744 -0.00913216 -0.00979046 -0.0084036 -0.00913216 -0.00910125 -0.00986938 -0.00913216 -0.00979046 -0.00986938 -0.0105636 -0.0122744 -0.0130164 -0.00979046 -0.010361 -0.0130164 -0.0136213 -0.010361 -0.0108282 -0.00979046 -0.010361 -0.0105636 -0.0111663 -0.010361 -0.0108282 -0.0111663 -0.0116618 -0.00910125 -0.00986938 -0.00883771 -0.00957418 -0.00986938 -0.0105636 -0.00957418 -0.0102406 -0.00883771 -0.00957418 -0.00880776 -0.00954648 -0.00957418 -0.0102406 -0.00954648 -0.0102161 -0.0105636 -0.0111663 -0.0102406 -0.0108202 -0.0111663 -0.0116618 -0.0108202 -0.0112985 -0.0102406 -0.0108202 -0.0102161 -0.0107994 -0.0108202 -0.0112985 -0.0107994 -0.0112816 -0.00553268 -0.00636303 -0.00545533 -0.00629379 -0.00636303 -0.00719742 -0.00629379 -0.00713887 -0.00545533 -0.00629379 -0.00534354 -0.00620627 -0.00629379 -0.00713887 -0.00620627 -0.00707904 -0.00719742 -0.00801846 -0.00713887 -0.00797283 -0.00801846 -0.00880776 -0.00797283 -0.00877674 -0.00713887 -0.00797283 -0.00707904 -0.00794342 -0.00797283 -0.00877674 -0.00794342 -0.00877945 -0.00534354 -0.00620627 -0.00518554 -0.00608817 -0.00620627 -0.00707904 -0.00608817 -0.00700525 -0.00518554 -0.00608817 -0.00497222 -0.00593082 -0.00608817 -0.00700525 -0.00593082 -0.00690957 -0.00707904 -0.00794342 -0.00700525 -0.00791736 -0.00794342 -0.00877945 -0.00791736 -0.00880305 -0.00700525 -0.00791736 -0.00690957 -0.00788774 -0.00791736 -0.00880305 -0.00788774 -0.00884202 -0.00880776 -0.00954648 -0.00877674 -0.00953097 -0.00954648 -0.0102161 -0.00953097 -0.0102161 -0.00877674 -0.00953097 -0.00877945 -0.00956614 -0.00953097 -0.0102161 -0.00956614 -0.0102824 -0.0102161 -0.0107994 -0.0102161 -0.0108137 -0.0107994 -0.0112816 -0.0108137 -0.0113081 -0.0102161 -0.0108137 -0.0102824 -0.0109083 -0.0108137 -0.0113081 -0.0109083 -0.0114259 -0.00877945 -0.00956614 -0.00880305 -0.00963943 -0.00956614 -0.0102824 -0.00963943 -0.0104031 -0.00880305 -0.00963943 -0.00884202 -0.00974696 -0.00963943 -0.0104031 -0.00974696 -0.0105762 -0.0102824 -0.0109083 -0.0104031 -0.0110716 -0.0109083 -0.0114259 -0.0110716 -0.0116245 -0.0104031 -0.0110716 -0.0105762 -0.0113038 -0.0110716 -0.0116245 -0.0113038 -0.011906 -0.0136213 -0.0140704 -0.0108282 -0.0111796 -0.0140704 -0.0143498 -0.0111796 -0.011408 -0.0108282 -0.0111796 -0.0116618 -0.0120386 -0.0111796 -0.011408 -0.0120386 -0.0122904 -0.0143498 -0.0144556 -0.011408 -0.0115107 -0.0144556 -0.0143886 -0.0115107 -0.011508 -0.011408 -0.0115107 -0.0122904 -0.0124164 -0.0115107 -0.011508 -0.0124164 -0.012435 -0.0116618 -0.0120386 -0.0112985 -0.0116646 -0.0120386 -0.0122904 -0.0116646 -0.011913 -0.0112985 -0.0116646 -0.0112816 -0.0116515 -0.0116646 -0.011913 -0.0116515 -0.0119028 -0.0122904 -0.0124164 -0.011913 -0.0120426 -0.0124164 -0.012435 -0.0120426 -0.01207 -0.011913 -0.0120426 -0.0119028 -0.0120333 -0.0120426 -0.01207 -0.0120333 -0.0120574 -0.0143886 -0.0142065 -0.011508 -0.0113623 -0.0142065 -0.0139177 -0.0113623 -0.0114264 -0.011508 -0.0113623 -0.012435 -0.0123163 -0.0113623 -0.0114264 -0.0123163 -0.0123744 -0.0139177 -0.0130049 -0.0114264 -0.0101779 -0.0130049 -0.0141553 -0.0101779 -0.0128294 -0.0114264 -0.0101779 -0.0123744 -0.0111368 -0.0101779 -0.0128294 -0.0111368 -0.0132141 -0.012435 -0.0123163 -0.01207 -0.0119581 -0.0123163 -0.0123744 -0.0119581 -0.0120186 -0.01207 -0.0119581 -0.0120574 -0.0119351 -0.0119581 -0.0120186 -0.0119351 -0.0119638 -0.0123744 -0.0111368 -0.0120186 -0.0107476 -0.0111368 -0.0132141 -0.0107476 -0.012915 -0.0120186 -0.0107476 -0.0119638 -0.0106619 -0.0107476 -0.012915 -0.0106619 -0.0126515 -0.0112816 -0.0116515 -0.0113081 -0.0116868 -0.0116515 -0.0119028 -0.0116868 -0.0119426 -0.0113081 -0.0116868 -0.0114259 -0.0118213 -0.0116868 -0.0119426 -0.0118213 -0.0120855 -0.0119028 -0.0120333 -0.0119426 -0.0120715 -0.0120333 -0.0120574 -0.0120715 -0.0120862 -0.0119426 -0.0120715 -0.0120855 -0.0122134 -0.0120715 -0.0120862 -0.0122134 -0.0122161 -0.0114259 -0.0118213 -0.0116245 -0.0120455 -0.0118213 -0.0120855 -0.0120455 -0.0123237 -0.0116245 -0.0120455 -0.011906 -0.0123635 -0.0120455 -0.0123237 -0.0123635 -0.0126629 -0.0120855 -0.0122134 -0.0123237 -0.0124526 -0.0122134 -0.0122161 -0.0124526 -0.0124429 -0.0123237 -0.0124526 -0.0126629 -0.0127965 -0.0124526 -0.0124429 -0.0127965 -0.0127752 -0.0120574 -0.0119351 -0.0120862 -0.0119443 -0.0119351 -0.0119638 -0.0119443 -0.0119385 -0.0120862 -0.0119443 -0.0122161 -0.0120504 -0.0119443 -0.0119385 -0.0120504 -0.0120088 -0.0119638 -0.0106619 -0.0119385 -0.0105936 -0.0106619 -0.0126515 -0.0105936 -0.0125133 -0.0119385 -0.0105936 -0.0120088 -0.0106175 -0.0105936 -0.0125133 -0.0106175 -0.0124818 -0.0122161 -0.0120504 -0.0124429 -0.0122514 -0.0120504 -0.0120088 -0.0122514 -0.0121747 -0.0124429 -0.0122514 -0.0127752 -0.012556 -0.0122514 -0.0121747 -0.012556 -0.0124438 -0.0120088 -0.0106175 -0.0121747 -0.0107287 -0.0106175 -0.0124818 -0.0107287 -0.0125651 -0.0121747 -0.0107287 -0.0124438 -0.0109324 -0.0107287 -0.0125651 -0.0109324 -0.0127596 -0.00497222 -0.00593082 -0.00469 -0.00572097 -0.00593082 -0.00690957 -0.00572097 -0.00677948 -0.00469 -0.00572097 -0.00432093 -0.00544088 -0.00572097 -0.00677948 -0.00544088 -0.00659805 -0.00690957 -0.00788774 -0.00677948 -0.00784332 -0.00788774 -0.00884202 -0.00784332 -0.00888685 -0.00677948 -0.00784332 -0.00659805 -0.00776863 -0.00784332 -0.00888685 -0.00776863 -0.00892431 -0.00432093 -0.00544088 -0.00384136 -0.00506676 -0.00544088 -0.00659805 -0.00506676 -0.00634211 -0.00384136 -0.00506676 -0.00322116 -0.00456769 -0.00506676 -0.00634211 -0.00456769 -0.00598069 -0.00659805 -0.00776863 -0.00634211 -0.00764202 -0.00776863 -0.00892431 -0.00764202 -0.00893529 -0.00634211 -0.00764202 -0.00598069 -0.00743364 -0.00764202 -0.00893529 -0.00743364 -0.00889246 -0.00884202 -0.00974696 -0.00888685 -0.00988149 -0.00974696 -0.0105762 -0.00988149 -0.010797 -0.00888685 -0.00988149 -0.00892431 -0.0100327 -0.00988149 -0.010797 -0.0100327 -0.0110588 -0.0105762 -0.0113038 -0.010797 -0.011603 -0.0113038 -0.011906 -0.011603 -0.0122716 -0.010797 -0.011603 -0.0110588 -0.0119667 -0.011603 -0.0122716 -0.0119667 -0.0127224 -0.00892431 -0.0100327 -0.00893529 -0.0101852 -0.0100327 -0.0110588 -0.0101852 -0.0113508 -0.00893529 -0.0101852 -0.00889246 -0.0103157 -0.0101852 -0.0113508 -0.0103157 -0.0116553 -0.0110588 -0.0119667 -0.0113508 -0.0123891 -0.0119667 -0.0127224 -0.0123891 -0.0132584 -0.0113508 -0.0123891 -0.0116553 -0.0128595 -0.0123891 -0.0132584 -0.0128595 -0.0138765 -0.00322116 -0.00456769 -0.00242255 -0.00390394 -0.00456769 -0.00598069 -0.00390394 -0.00547305 -0.00242255 -0.00390394 -0.00139965 -0.00302602 -0.00390394 -0.00547305 -0.00302602 -0.00476677 -0.00598069 -0.00743364 -0.00547305 -0.00710298 -0.00743364 -0.00889246 -0.00710298 -0.00875735 -0.00547305 -0.00710298 -0.00476677 -0.0065961 -0.00710298 -0.00875735 -0.0065961 -0.0084766 -0.00139965 -0.00302602 -9.82189e-05 -0.00187373 -0.00302602 -0.00476677 -0.00187373 -0.003796 -9.82189e-05 -0.00187373 0.00154294 -0.000376999 -0.00187373 -0.003796 -0.000376999 -0.00248121 -0.00476677 -0.0065961 -0.003796 -0.00584265 -0.0065961 -0.0084766 -0.00584265 -0.00797755 -0.003796 -0.00584265 -0.00248121 -0.00