# vtk DataFile Version 3.0
#This file was generated by the deal.II library on 2026/1/5 at 14:19:34
ASCII
DATASET UNSTRUCTURED_GRID

POINTS 4096 double
0 0 0
0.03125 0 0
0 0.03125 0
0.03125 0.03125 0
0.03125 0 0
0.0625 0 0
0.03125 0.03125 0
0.0625 0.03125 0
0 0.03125 0
0.03125 0.03125 0
0 0.0625 0
0.03125 0.0625 0
0.03125 0.03125 0
0.0625 0.03125 0
0.03125 0.0625 0
0.0625 0.0625 0
0.0625 0 0
0.09375 0 0
0.0625 0.03125 0
0.09375 0.03125 0
0.09375 0 0
0.125 0 0
0.09375 0.03125 0
0.125 0.03125 0
0.0625 0.03125 0
0.09375 0.03125 0
0.0625 0.0625 0
0.09375 0.0625 0
0.09375 0.03125 0
0.125 0.03125 0
0.09375 0.0625 0
0.125 0.0625 0
0 0.0625 0
0.03125 0.0625 0
0 0.09375 0
0.03125 0.09375 0
0.03125 0.0625 0
0.0625 0.0625 0
0.03125 0.09375 0
0.0625 0.09375 0
0 0.09375 0
0.03125 0.09375 0
0 0.125 0
0.03125 0.125 0
0.03125 0.09375 0
0.0625 0.09375 0
0.03125 0.125 0
0.0625 0.125 0
0.0625 0.0625 0
0.09375 0.0625 0
0.0625 0.09375 0
0.09375 0.09375 0
0.09375 0.0625 0
0.125 0.0625 0
0.09375 0.09375 0
0.125 0.09375 0
0.0625 0.09375 0
0.09375 0.09375 0
0.0625 0.125 0
0.09375 0.125 0
0.09375 0.09375 0
0.125 0.09375 0
0.09375 0.125 0
0.125 0.125 0
0.125 0 0
0.15625 0 0
0.125 0.03125 0
0.15625 0.03125 0
0.15625 0 0
0.1875 0 0
0.15625 0.03125 0
0.1875 0.03125 0
0.125 0.03125 0
0.15625 0.03125 0
0.125 0.0625 0
0.15625 0.0625 0
0.15625 0.03125 0
0.1875 0.03125 0
0.15625 0.0625 0
0.1875 0.0625 0
0.1875 0 0
0.21875 0 0
0.1875 0.03125 0
0.21875 0.03125 0
0.21875 0 0
0.25 0 0
0.21875 0.03125 0
0.25 0.03125 0
0.1875 0.03125 0
0.21875 0.03125 0
0.1875 0.0625 0
0.21875 0.0625 0
0.21875 0.03125 0
0.25 0.03125 0
0.21875 0.0625 0
0.25 0.0625 0
0.125 0.0625 0
0.15625 0.0625 0
0.125 0.09375 0
0.15625 0.09375 0
0.15625 0.0625 0
0.1875 0.0625 0
0.15625 0.09375 0
0.1875 0.09375 0
0.125 0.09375 0
0.15625 0.09375 0
0.125 0.125 0
0.15625 0.125 0
0.15625 0.09375 0
0.1875 0.09375 0
0.15625 0.125 0
0.1875 0.125 0
0.1875 0.0625 0
0.21875 0.0625 0
0.1875 0.09375 0
0.21875 0.09375 0
0.21875 0.0625 0
0.25 0.0625 0
0.21875 0.09375 0
0.25 0.09375 0
0.1875 0.09375 0
0.21875 0.09375 0
0.1875 0.125 0
0.21875 0.125 0
0.21875 0.09375 0
0.25 0.09375 0
0.21875 0.125 0
0.25 0.125 0
0 0.125 0
0.03125 0.125 0
0 0.15625 0
0.03125 0.15625 0
0.03125 0.125 0
0.0625 0.125 0
0.03125 0.15625 0
0.0625 0.15625 0
0 0.15625 0
0.03125 0.15625 0
0 0.1875 0
0.03125 0.1875 0
0.03125 0.15625 0
0.0625 0.15625 0
0.03125 0.1875 0
0.0625 0.1875 0
0.0625 0.125 0
0.09375 0.125 0
0.0625 0.15625 0
0.09375 0.15625 0
0.09375 0.125 0
0.125 0.125 0
0.09375 0.15625 0
0.125 0.15625 0
0.0625 0.15625 0
0.09375 0.15625 0
0.0625 0.1875 0
0.09375 0.1875 0
0.09375 0.15625 0
0.125 0.15625 0
0.09375 0.1875 0
0.125 0.1875 0
0 0.1875 0
0.03125 0.1875 0
0 0.21875 0
0.03125 0.21875 0
0.03125 0.1875 0
0.0625 0.1875 0
0.03125 0.21875 0
0.0625 0.21875 0
0 0.21875 0
0.03125 0.21875 0
0 0.25 0
0.03125 0.25 0
0.03125 0.21875 0
0.0625 0.21875 0
0.03125 0.25 0
0.0625 0.25 0
0.0625 0.1875 0
0.09375 0.1875 0
0.0625 0.21875 0
0.09375 0.21875 0
0.09375 0.1875 0
0.125 0.1875 0
0.09375 0.21875 0
0.125 0.21875 0
0.0625 0.21875 0
0.09375 0.21875 0
0.0625 0.25 0
0.09375 0.25 0
0.09375 0.21875 0
0.125 0.21875 0
0.09375 0.25 0
0.125 0.25 0
0.125 0.125 0
0.15625 0.125 0
0.125 0.15625 0
0.15625 0.15625 0
0.15625 0.125 0
0.1875 0.125 0
0.15625 0.15625 0
0.1875 0.15625 0
0.125 0.15625 0
0.15625 0.15625 0
0.125 0.1875 0
0.15625 0.1875 0
0.15625 0.15625 0
0.1875 0.15625 0
0.15625 0.1875 0
0.1875 0.1875 0
0.1875 0.125 0
0.21875 0.125 0
0.1875 0.15625 0
0.21875 0.15625 0
0.21875 0.125 0
0.25 0.125 0
0.21875 0.15625 0
0.25 0.15625 0
0.1875 0.15625 0
0.21875 0.15625 0
0.1875 0.1875 0
0.21875 0.1875 0
0.21875 0.15625 0
0.25 0.15625 0
0.21875 0.1875 0
0.25 0.1875 0
0.125 0.1875 0
0.15625 0.1875 0
0.125 0.21875 0
0.15625 0.21875 0
0.15625 0.1875 0
0.1875 0.1875 0
0.15625 0.21875 0
0.1875 0.21875 0
0.125 0.21875 0
0.15625 0.21875 0
0.125 0.25 0
0.15625 0.25 0
0.15625 0.21875 0
0.1875 0.21875 0
0.15625 0.25 0
0.1875 0.25 0
0.1875 0.1875 0
0.21875 0.1875 0
0.1875 0.21875 0
0.21875 0.21875 0
0.21875 0.1875 0
0.25 0.1875 0
0.21875 0.21875 0
0.25 0.21875 0
0.1875 0.21875 0
0.21875 0.21875 0
0.1875 0.25 0
0.21875 0.25 0
0.21875 0.21875 0
0.25 0.21875 0
0.21875 0.25 0
0.25 0.25 0
0.25 0 0
0.28125 0 0
0.25 0.03125 0
0.28125 0.03125 0
0.28125 0 0
0.3125 0 0
0.28125 0.03125 0
0.3125 0.03125 0
0.25 0.03125 0
0.28125 0.03125 0
0.25 0.0625 0
0.28125 0.0625 0
0.28125 0.03125 0
0.3125 0.03125 0
0.28125 0.0625 0
0.3125 0.0625 0
0.3125 0 0
0.34375 0 0
0.3125 0.03125 0
0.34375 0.03125 0
0.34375 0 0
0.375 0 0
0.34375 0.03125 0
0.375 0.03125 0
0.3125 0.03125 0
0.34375 0.03125 0
0.3125 0.0625 0
0.34375 0.0625 0
0.34375 0.03125 0
0.375 0.03125 0
0.34375 0.0625 0
0.375 0.0625 0
0.25 0.0625 0
0.28125 0.0625 0
0.25 0.09375 0
0.28125 0.09375 0
0.28125 0.0625 0
0.3125 0.0625 0
0.28125 0.09375 0
0.3125 0.09375 0
0.25 0.09375 0
0.28125 0.09375 0
0.25 0.125 0
0.28125 0.125 0
0.28125 0.09375 0
0.3125 0.09375 0
0.28125 0.125 0
0.3125 0.125 0
0.3125 0.0625 0
0.34375 0.0625 0
0.3125 0.09375 0
0.34375 0.09375 0
0.34375 0.0625 0
0.375 0.0625 0
0.34375 0.09375 0
0.375 0.09375 0
0.3125 0.09375 0
0.34375 0.09375 0
0.3125 0.125 0
0.34375 0.125 0
0.34375 0.09375 0
0.375 0.09375 0
0.34375 0.125 0
0.375 0.125 0
0.375 0 0
0.40625 0 0
0.375 0.03125 0
0.40625 0.03125 0
0.40625 0 0
0.4375 0 0
0.40625 0.03125 0
0.4375 0.03125 0
0.375 0.03125 0
0.40625 0.03125 0
0.375 0.0625 0
0.40625 0.0625 0
0.40625 0.03125 0
0.4375 0.03125 0
0.40625 0.0625 0
0.4375 0.0625 0
0.4375 0 0
0.46875 0 0
0.4375 0.03125 0
0.46875 0.03125 0
0.46875 0 0
0.5 0 0
0.46875 0.03125 0
0.5 0.03125 0
0.4375 0.03125 0
0.46875 0.03125 0
0.4375 0.0625 0
0.46875 0.0625 0
0.46875 0.03125 0
0.5 0.03125 0
0.46875 0.0625 0
0.5 0.0625 0
0.375 0.0625 0
0.40625 0.0625 0
0.375 0.09375 0
0.40625 0.09375 0
0.40625 0.0625 0
0.4375 0.0625 0
0.40625 0.09375 0
0.4375 0.09375 0
0.375 0.09375 0
0.40625 0.09375 0
0.375 0.125 0
0.40625 0.125 0
0.40625 0.09375 0
0.4375 0.09375 0
0.40625 0.125 0
0.4375 0.125 0
0.4375 0.0625 0
0.46875 0.0625 0
0.4375 0.09375 0
0.46875 0.09375 0
0.46875 0.0625 0
0.5 0.0625 0
0.46875 0.09375 0
0.5 0.09375 0
0.4375 0.09375 0
0.46875 0.09375 0
0.4375 0.125 0
0.46875 0.125 0
0.46875 0.09375 0
0.5 0.09375 0
0.46875 0.125 0
0.5 0.125 0
0.25 0.125 0
0.28125 0.125 0
0.25 0.15625 0
0.28125 0.15625 0
0.28125 0.125 0
0.3125 0.125 0
0.28125 0.15625 0
0.3125 0.15625 0
0.25 0.15625 0
0.28125 0.15625 0
0.25 0.1875 0
0.28125 0.1875 0
0.28125 0.15625 0
0.3125 0.15625 0
0.28125 0.1875 0
0.3125 0.1875 0
0.3125 0.125 0
0.34375 0.125 0
0.3125 0.15625 0
0.34375 0.15625 0
0.34375 0.125 0
0.375 0.125 0
0.34375 0.15625 0
0.375 0.15625 0
0.3125 0.15625 0
0.34375 0.15625 0
0.3125 0.1875 0
0.34375 0.1875 0
0.34375 0.15625 0
0.375 0.15625 0
0.34375 0.1875 0
0.375 0.1875 0
0.25 0.1875 0
0.28125 0.1875 0
0.25 0.21875 0
0.28125 0.21875 0
0.28125 0.1875 0
0.3125 0.1875 0
0.28125 0.21875 0
0.3125 0.21875 0
0.25 0.21875 0
0.28125 0.21875 0
0.25 0.25 0
0.28125 0.25 0
0.28125 0.21875 0
0.3125 0.21875 0
0.28125 0.25 0
0.3125 0.25 0
0.3125 0.1875 0
0.34375 0.1875 0
0.3125 0.21875 0
0.34375 0.21875 0
0.34375 0.1875 0
0.375 0.1875 0
0.34375 0.21875 0
0.375 0.21875 0
0.3125 0.21875 0
0.34375 0.21875 0
0.3125 0.25 0
0.34375 0.25 0
0.34375 0.21875 0
0.375 0.21875 0
0.34375 0.25 0
0.375 0.25 0
0.375 0.125 0
0.40625 0.125 0
0.375 0.15625 0
0.40625 0.15625 0
0.40625 0.125 0
0.4375 0.125 0
0.40625 0.15625 0
0.4375 0.15625 0
0.375 0.15625 0
0.40625 0.15625 0
0.375 0.1875 0
0.40625 0.1875 0
0.40625 0.15625 0
0.4375 0.15625 0
0.40625 0.1875 0
0.4375 0.1875 0
0.4375 0.125 0
0.46875 0.125 0
0.4375 0.15625 0
0.46875 0.15625 0
0.46875 0.125 0
0.5 0.125 0
0.46875 0.15625 0
0.5 0.15625 0
0.4375 0.15625 0
0.46875 0.15625 0
0.4375 0.1875 0
0.46875 0.1875 0
0.46875 0.15625 0
0.5 0.15625 0
0.46875 0.1875 0
0.5 0.1875 0
0.375 0.1875 0
0.40625 0.1875 0
0.375 0.21875 0
0.40625 0.21875 0
0.40625 0.1875 0
0.4375 0.1875 0
0.40625 0.21875 0
0.4375 0.21875 0
0.375 0.21875 0
0.40625 0.21875 0
0.375 0.25 0
0.40625 0.25 0
0.40625 0.21875 0
0.4375 0.21875 0
0.40625 0.25 0
0.4375 0.25 0
0.4375 0.1875 0
0.46875 0.1875 0
0.4375 0.21875 0
0.46875 0.21875 0
0.46875 0.1875 0
0.5 0.1875 0
0.46875 0.21875 0
0.5 0.21875 0
0.4375 0.21875 0
0.46875 0.21875 0
0.4375 0.25 0
0.46875 0.25 0
0.46875 0.21875 0
0.5 0.21875 0
0.46875 0.25 0
0.5 0.25 0
0 0.25 0
0.03125 0.25 0
0 0.28125 0
0.03125 0.28125 0
0.03125 0.25 0
0.0625 0.25 0
0.03125 0.28125 0
0.0625 0.28125 0
0 0.28125 0
0.03125 0.28125 0
0 0.3125 0
0.03125 0.3125 0
0.03125 0.28125 0
0.0625 0.28125 0
0.03125 0.3125 0
0.0625 0.3125 0
0.0625 0.25 0
0.09375 0.25 0
0.0625 0.28125 0
0.09375 0.28125 0
0.09375 0.25 0
0.125 0.25 0
0.09375 0.28125 0
0.125 0.28125 0
0.0625 0.28125 0
0.09375 0.28125 0
0.0625 0.3125 0
0.09375 0.3125 0
0.09375 0.28125 0
0.125 0.28125 0
0.09375 0.3125 0
0.125 0.3125 0
0 0.3125 0
0.03125 0.3125 0
0 0.34375 0
0.03125 0.34375 0
0.03125 0.3125 0
0.0625 0.3125 0
0.03125 0.34375 0
0.0625 0.34375 0
0 0.34375 0
0.03125 0.34375 0
0 0.375 0
0.03125 0.375 0
0.03125 0.34375 0
0.0625 0.34375 0
0.03125 0.375 0
0.0625 0.375 0
0.0625 0.3125 0
0.09375 0.3125 0
0.0625 0.34375 0
0.09375 0.34375 0
0.09375 0.3125 0
0.125 0.3125 0
0.09375 0.34375 0
0.125 0.34375 0
0.0625 0.34375 0
0.09375 0.34375 0
0.0625 0.375 0
0.09375 0.375 0
0.09375 0.34375 0
0.125 0.34375 0
0.09375 0.375 0
0.125 0.375 0
0.125 0.25 0
0.15625 0.25 0
0.125 0.28125 0
0.15625 0.28125 0
0.15625 0.25 0
0.1875 0.25 0
0.15625 0.28125 0
0.1875 0.28125 0
0.125 0.28125 0
0.15625 0.28125 0
0.125 0.3125 0
0.15625 0.3125 0
0.15625 0.28125 0
0.1875 0.28125 0
0.15625 0.3125 0
0.1875 0.3125 0
0.1875 0.25 0
0.21875 0.25 0
0.1875 0.28125 0
0.21875 0.28125 0
0.21875 0.25 0
0.25 0.25 0
0.21875 0.28125 0
0.25 0.28125 0
0.1875 0.28125 0
0.21875 0.28125 0
0.1875 0.3125 0
0.21875 0.3125 0
0.21875 0.28125 0
0.25 0.28125 0
0.21875 0.3125 0
0.25 0.3125 0
0.125 0.3125 0
0.15625 0.3125 0
0.125 0.34375 0
0.15625 0.34375 0
0.15625 0.3125 0
0.1875 0.3125 0
0.15625 0.34375 0
0.1875 0.34375 0
0.125 0.34375 0
[...]
POINT_DATA 4096
SCALARS p double 1
LOOKUP_TABLE default
-1.90852e-05 6.65698e-05 -0.000122225 -2.9349e-05 6.65698e-05 0.000308722 -2.9349e-05 9.82815e-05 -0.000122225 -2.9349e-05 -0.000370776 -0.000159482 -2.9349e-05 9.82815e-05 -0.000159482 -2.82216e-05 0.000308722 0.000539216 9.82815e-05 0.000219708 0.000539216 0.000665614 0.000219708 0.000274301 9.82815e-05 0.000219708 -2.82216e-05 8.33162e-05 0.000219708 0.000274301 8.33162e-05 0.00011632 -0.000370776 -0.000159482 -0.000613223 -0.000283853 -0.000159482 -2.82216e-05 -0.000283853 -0.000134419 -0.000613223 -0.000283853 -0.000759025 -0.000341216 -0.000283853 -0.000134419 -0.000341216 -0.000158109 -2.82216e-05 8.33162e-05 -0.000134419 -1.80325e-05 8.33162e-05 0.00011632 -1.80325e-05 6.13942e-06 -0.000134419 -1.80325e-05 -0.000158109 -2.15522e-05 -1.80325e-05 6.13942e-06 -2.15522e-05 7.94929e-06 0.000665614 0.000650538 0.000274301 0.00023589 0.000650538 0.0004854 0.00023589 9.28275e-05 0.000274301 0.00023589 0.00011632 5.63578e-05 0.00023589 9.28275e-05 5.63578e-05 -0.000108055 0.0004854 0.00017388 9.28275e-05 -0.00015672 0.00017388 -0.000275242 -0.00015672 -0.000509626 9.28275e-05 -0.00015672 -0.000108055 -0.00038002 -0.00015672 -0.000509626 -0.00038002 -0.000758196 0.00011632 5.63578e-05 6.13942e-06 -6.07498e-05 5.63578e-05 -0.000108055 -6.07498e-05 -0.00022603 6.13942e-06 -6.07498e-05 7.94929e-06 -5.87913e-05 -6.07498e-05 -0.00022603 -5.87913e-05 -0.000225095 -0.000108055 -0.00038002 -0.00022603 -0.000491457 -0.00038002 -0.000758196 -0.000491457 -0.000856166 -0.00022603 -0.000491457 -0.000225095 -0.000490656 -0.000491457 -0.000856166 -0.000490656 -0.000854031 -0.000759025 -0.000341216 -0.000767557 -0.000301375 -0.000341216 -0.000158109 -0.000301375 -7.89758e-05 -0.000767557 -0.000301375 -0.000622889 -0.000146238 -0.000301375 -7.89758e-05 -0.000146238 0.000122392 -0.000158109 -2.15522e-05 -7.89758e-05 7.87267e-05 -2.15522e-05 7.94929e-06 7.87267e-05 0.000118976 -7.89758e-05 7.87267e-05 0.000122392 0.000298678 7.87267e-05 0.000118976 0.000298678 0.00035164 -0.000622889 -0.000146238 -0.000318226 0.000134772 -0.000146238 0.000122392 0.000134772 0.000459081 -0.000318226 0.000134772 0.000150808 0.000549471 0.000134772 0.000459081 0.000549471 0.000941898 0.000122392 0.000298678 0.000459081 0.00065022 0.000298678 0.00035164 0.00065022 0.000715989 0.000459081 0.00065022 0.000941898 0.00114456 0.00065022 0.000715989 0.00114456 0.00122272 7.94929e-06 -5.87913e-05 0.000118976 5.64718e-05 -5.87913e-05 -0.000225095 5.64718e-05 -0.000108776 0.000118976 5.64718e-05 0.00035164 0.000294491 5.64718e-05 -0.000108776 0.000294491 0.00012997 -0.000225095 -0.000490656 -0.000108776 -0.000374644 -0.000490656 -0.000854031 -0.000374644 -0.000738875 -0.000108776 -0.000374644 0.00012997 -0.000138549 -0.000374644 -0.000738875 -0.000138549 -0.000508014 0.00035164 0.000294491 0.000715989 0.00066356 0.000294491 0.00012997 0.00066356 0.00049821 0.000715989 0.00066356 0.00122272 0.00117348 0.00066356 0.00049821 0.00117348 0.00100488 0.00012997 -0.000138549 0.00049821 0.00022405 -0.000138549 -0.000508014 0.00022405 -0.000155189 0.00049821 0.00022405 0.00100488 0.000721438 0.00022405 -0.000155189 0.000721438 0.000327414 -0.000275242 -0.000851542 -0.000509626 -0.000960182 -0.000851542 -0.00154422 -0.000960182 -0.00150139 -0.000509626 -0.000960182 -0.000758196 -0.0012382 -0.000960182 -0.00150139 -0.0012382 -0.00181385 -0.00154422 -0.00234231 -0.00150139 -0.00212534 -0.00234231 -0.00323436 -0.00212534 -0.00282331 -0.00150139 -0.00212534 -0.00181385 -0.00247747 -0.00212534 -0.00282331 -0.00247747 -0.00322019 -0.000758196 -0.0012382 -0.000856166 -0.0013169 -0.0012382 -0.00181385 -0.0013169 -0.00186862 -0.000856166 -0.0013169 -0.000854031 -0.00131219 -0.0013169 -0.00186862 -0.00131219 -0.00186057 -0.00181385 -0.00247747 -0.00186862 -0.00250471 -0.00247747 -0.00322019 -0.00250471 -0.00321718 -0.00186862 -0.00250471 -0.00186057 -0.00249313 -0.00250471 -0.00321718 -0.00249313 -0.00320234 -0.00323436 -0.00420811 -0.00282331 -0.00358564 -0.00420811 -0.00525008 -0.00358564 -0.00440167 -0.00282331 -0.00358564 -0.00322019 -0.00403191 -0.00358564 -0.00440167 -0.00403191 -0.00490129 -0.00525008 -0.00634542 -0.00440167 -0.00525956 -0.00634542 -0.00747783 -0.00525956 -0.00614629 -0.00440167 -0.00525956 -0.00490129 -0.00581568 -0.00525956 -0.00614629 -0.00581568 -0.00676114 -0.00322019 -0.00403191 -0.00321718 -0.00399665 -0.00403191 -0.00490129 -0.00399665 -0.00483242 -0.00321718 -0.00399665 -0.00320234 -0.00397931 -0.00399665 -0.00483242 -0.00397931 -0.00481364 -0.00490129 -0.00581568 -0.00483242 -0.00571244 -0.00581568 -0.00676114 -0.00571244 -0.00662334 -0.00483242 -0.00571244 -0.00481364 -0.00569352 -0.00571244 -0.00662334 -0.00569352 -0.00660572 -0.000854031 -0.00131219 -0.000738875 -0.0011983 -0.00131219 -0.00186057 -0.0011983 -0.00174855 -0.000738875 -0.0011983 -0.000508014 -0.000974989 -0.0011983 -0.00174855 -0.000974989 -0.0015351 -0.00186057 -0.00249313 -0.00174855 -0.00238396 -0.00249313 -0.00320234 -0.00238396 -0.00309741 -0.00174855 -0.00238396 -0.0015351 -0.0021829 -0.00238396 -0.00309741 -0.0021829 -0.00291153 -0.000508014 -0.000974989 -0.000155189 -0.000635803 -0.000974989 -0.0015351 -0.000635803 -0.00121339 -0.000155189 -0.000635803 0.000327414 -0.000173251 -0.000635803 -0.00121339 -0.000173251 -0.000776115 -0.0015351 -0.0021829 -0.00121339 -0.00188263 -0.0021829 -0.00291153 -0.00188263 -0.00263686 -0.00121339 -0.00188263 -0.000776115 -0.00147596 -0.00188263 -0.00263686 -0.00147596 -0.00226628 -0.00320234 -0.00397931 -0.00309741 -0.00388034 -0.00397931 -0.00481364 -0.00388034 -0.00472268 -0.00309741 -0.00388034 -0.00291153 -0.00371271 -0.00388034 -0.00472268 -0.00371271 -0.00457652 -0.00481364 -0.00569352 -0.00472268 -0.00561275 -0.00569352 -0.00660572 -0.00561275 -0.0065374 -0.00472268 -0.00561275 -0.00457652 -0.00549139 -0.00561275 -0.0065374 -0.00549139 -0.0064441 -0.00291153 -0.00371271 -0.00263686 -0.00346795 -0.00371271 -0.00457652 -0.00346795 -0.00436612 -0.00263686 -0.00346795 -0.00226628 -0.00313914 -0.00346795 -0.00436612 -0.00313914 -0.00408482 -0.00457652 -0.00549139 -0.00436612 -0.00531984 -0.00549139 -0.0064441 -0.00531984 -0.0063157 -0.00436612 -0.00531984 -0.00408482 -0.00509175 -0.00531984 -0.0063157 -0.00509175 -0.0061463 0.000150808 0.000549471 0.000789681 0.00110548 0.000549471 0.000941898 0.00110548 0.00158127 0.000789681 0.00110548 0.00160653 0.00181168 0.00110548 0.00158127 0.00181168 0.00238858 0.000941898 0.00114456 0.00158127 0.00179291 0.00114456 0.00122272 0.00179291 0.00188314 0.00158127 0.00179291 0.00238858 0.00260746 0.00179291 0.00188314 0.00260746 0.00270987 0.00160653 0.00181168 0.00261282 0.00267914 0.00181168 0.00238858 0.00267914 0.00337738 0.00261282 0.00267914 0.00382353 0.00372153 0.00267914 0.00337738 0.00372153 0.00456392 0.00238858 0.00260746 0.00337738 0.00360247 0.00260746 0.00270987 0.00360247 0.00371761 0.00337738 0.00360247 0.00456392 0.00479472 0.00360247 0.00371761 0.00479472 0.00492366 0.00122272 0.00117348 0.00188314 0.0018352 0.00117348 0.00100488 0.0018352 0.00166047 0.00188314 0.0018352 0.00270987 0.0026614 0.0018352 0.00166047 0.0026614 0.00247758 0.00100488 0.000721438 0.00166047 0.00136373 0.000721438 0.000327414 0.00136373 0.000949686 0.00166047 0.00136373 0.00247758 0.00216336 0.00136373 0.000949686 0.00216336 0.001724 0.00270987 0.0026614 0.00371761 0.00366691 0.0026614 0.00247758 0.00366691 0.00347105 0.00371761 0.00366691 0.00492366 0.0048692 0.00366691 0.00347105 0.0048692 0.0046584 0.00247758 0.00216336 0.00347105 0.00313517 0.00216336 0.001724 0.00313517 0.00266522 0.00347105 0.00313517 0.0046584 0.00429676 0.00313517 0.00266522 0.00429676 0.00379107 0.00382353 0.00372153 0.00525743 0.00495567 0.00372153 0.00456392 0.00495567 0.00596786 0.00525743 0.00495567 0.00693737 0.00640192 0.00495567 0.00596786 0.00640192 0.00761284 0.00456392 0.00479472 0.00596786 0.00620432 0.00479472 0.00492366 0.00620432 0.00634849 0.00596786 0.00620432 0.00761284 0.00785529 0.00620432 0.00634849 0.00785529 0.00801644 0.00693737 0.00640192 0.00889068 0.00808492 0.00640192 0.00761284 0.00808492 0.00952751 0.00889068 0.00808492 0.01115 0.0100345 0.00808492 0.00952751 0.0100345 0.0117466 0.00761284 0.00785529 0.00952751 0.00977657 0.00785529 0.00801644 0.00977657 0.00995655 0.00952751 0.00977657 0.0117466 0.0120031 0.00977657 0.00995655 0.0120031 0.0122036 0.00492366 0.0048692 0.00634849 0.00628885 0.0048692 0.0046584 0.00628885 0.00606026 0.00634849 0.00628885 0.00801644 0.00795012 0.00628885 0.00606026 0.00795012 0.00770071 0.0046584 0.00429676 0.00606026 0.00566876 0.00429676 0.00379107 0.00566876 0.00512226 0.00606026 0.00566876 0.00770071 0.00727515 0.00566876 0.00512226 0.00727515 0.00668285 0.00801644 0.00795012 0.00995655 0.00988169 0.00795012 0.00770071 0.00988169 0.00960789 0.00995655 0.00988169 0.0122036 0.0121174 0.00988169 0.00960789 0.0121174 0.0118147 0.00770071 0.00727515 0.00960789 0.00914363 0.00727515 0.00668285 0.00914363 0.00850027 0.00960789 0.00914363 0.0118147 0.0113061 0.00914363 0.00850027 0.0113061 0.0106057 0.000327414 -0.000173251 0.000949686 0.000422483 -0.000173251 -0.000776115 0.000422483 -0.000213426 0.000949686 0.000422483 0.001724 0.0011638 0.000422483 -0.000213426 0.0011638 0.000487175 -0.000776115 -0.00147596 -0.000213426 -0.000952947 -0.00147596 -0.00226628 -0.000952947 -0.00178975 -0.000213426 -0.000952947 0.000487175 -0.000300952 -0.000952947 -0.00178975 -0.000300952 -0.00119449 0.001724 0.0011638 0.00266522 0.00206568 0.0011638 0.000487175 0.00206568 0.00134088 0.00266522 0.00206568 0.00379107 0.00314608 0.00206568 0.00134088 0.00314608 0.00236601 0.000487175 -0.000300952 0.00134088 0.000495548 -0.000300952 -0.00119449 0.000495548 -0.00046459 0.00134088 0.000495548 0.00236601 0.00145531 0.000495548 -0.00046459 0.00145531 0.000419183 -0.00226628 -0.00313914 -0.00178975 -0.00271611 -0.00313914 -0.00408482 -0.00271611 -0.00372244 -0.00178975 -0.00271611 -0.00119449 -0.00218596 -0.00271611 -0.00372244 -0.00218596 -0.00326599 -0.00408482 -0.00509175 -0.00372244 -0.00479711 -0.00509175 -0.0061463 -0.00479711 -0.00592627 -0.00372244 -0.00479711 -0.00326599 -0.00442304 -0.00479711 -0.00592627 -0.00442304 -0.00564305 -0.00119449 -0.00218596 -0.00046459 -0.00153243 -0.00218596 -0.00326599 -0.00153243 -0.00269899 -0.00046459 -0.00153243 0.000419183 -0.000735801 -0.00153243 -0.00269899 -0.000735801 -0.00200123 -0.00326599 -0.00442304 -0.00269899 -0.00395295 -0.00442304 -0.00564305 -0.00395295 -0.00528029 -0.00269899 -0.00395295 -0.00200123 -0.00336632 -0.00395295 -0.00528029 -0.00336632 -0.00481735 0.00379107 0.00314608 0.00512226 0.00442594 0.00314608 0.00236601 0.00442594 0.00358392 0.00512226 0.00442594 0.00668285 0.00592951 0.00442594 0.00358392 0.00592951 0.00501927 0.00236601 0.00145531 0.00358392 0.00260026 0.00145531 0.000419183 0.00260026 0.00147949 0.00358392 0.00260026 0.00501927 0.0039557 0.00260026 0.00147949 0.0039557 0.00274253 0.00668285 0.00592951 0.00850027 0.00768428 0.00592951 0.00501927 0.00768428 0.00669988 0.00850027 0.00768428 0.0106057 0.00972109 0.00768428 0.00669988 0.00972109 0.00865671 0.00501927 0.0039557 0.00669988 0.00555014 0.0039557 0.00274253 0.00555014 0.00423786 0.00669988 0.00555014 0.00865671 0.00741509 0.00555014 0.00423786 0.00741509 0.0059981 0.000419183 -0.000735801 0.00147949 0.000227412 -0.000735801 -0.00200123 0.000227412 -0.0011484 0.00147949 0.000227412 0.00274253 0.00138454 0.000227412 -0.0011484 0.00138454 -0.000111927 -0.00200123 -0.00336632 -0.0011484 -0.00263806 -0.00336632 -0.00481735 -0.00263806 -0.0042286 -0.0011484 -0.00263806 -0.000111927 -0.0017383 -0.00263806 -0.0042286 -0.0017383 -0.00348294 0.00274253 0.00138454 0.00423786 0.00276655 0.00138454 -0.000111927 0.00276655 0.00114096 0.00423786 0.00276655 0.0059981 0.00440779 0.00276655 0.00114096 0.00440779 0.00264695 -0.000111927 -0.0017383 0.00114096 -0.00063216 -0.0017383 -0.00348294 -0.00063216 -0.00254327 0.00114096 -0.00063216 0.00264695 0.000719949 -0.00063216 -0.00254327 0.000719949 -0.0013666 -0.00747783 -0.00862962 -0.00614629 -0.0070478 -0.00862962 -0.00978173 -0.0070478 -0.00794897 -0.00614629 -0.0070478 -0.00676114 -0.00772255 -0.0070478 -0.00794897 -0.00772255 -0.00868361 -0.00978173 -0.010914 -0.00794897 -0.00883387 -0.010914 -0.0120055 -0.00883387 -0.00968591 -0.00794897 -0.00883387 -0.00868361 -0.0096272 -0.00883387 -0.00968591 -0.0096272 -0.0105356 -0.00676114 -0.00772255 -0.00662334 -0.00755053 -0.00772255 -0.00868361 -0.00755053 -0.00847819 -0.00662334 -0.00755053 -0.00660572 -0.00753566 -0.00755053 -0.00847819 -0.00753566 -0.00846749 -0.00868361 -0.0096272 -0.00847819 -0.00938967 -0.0096272 -0.0105356 -0.00938967 -0.0102677 -0.00847819 -0.00938967 -0.00846749 -0.00938441 -0.00938967 -0.0102677 -0.00938441 -0.0102689 -0.0120055 -0.0130345 -0.00968591 -0.0104882 -0.0130345 -0.0139792 -0.0104882 -0.0112239 -0.00968591 -0.0104882 -0.0105356 -0.0113906 -0.0104882 -0.0112239 -0.0113906 -0.0121745 -0.0139792 -0.0148179 -0.0112239 -0.0118764 -0.0148179 -0.0155294 -0.0118764 -0.0124303 -0.0112239 -0.0118764 -0.0121745 -0.0128701 -0.0118764 -0.0124303 -0.0128701 -0.0134614 -0.0105356 -0.0113906 -0.0102677 -0.0110947 -0.0113906 -0.0121745 -0.0110947 -0.0118534 -0.0102677 -0.0110947 -0.0102689 -0.011103 -0.0110947 -0.0118534 -0.011103 -0.0118692 -0.0121745 -0.0128701 -0.0118534 -0.0125272 -0.0128701 -0.0134614 -0.0125272 -0.0131012 -0.0118534 -0.0125272 -0.0118692 -0.0125505 -0.0125272 -0.0131012 -0.0125505 -0.0131317 -0.00660572 -0.00753566 -0.0065374 -0.00748196 -0.00753566 -0.00846749 -0.00748196 -0.00843044 -0.0065374 -0.00748196 -0.0064441 -0.00741972 -0.00748196 -0.00843044 -0.00741972 -0.00840185 -0.00846749 -0.00938441 -0.00843044 -0.00936562 -0.00938441 -0.0102689 -0.00936562 -0.0102694 -0.00843044 -0.00936562 -0.00840185 -0.0093726 -0.00936562 -0.0102694 -0.0093726 -0.010313 -0.0064441 -0.00741972 -0.0063157 -0.00733837 -0.00741972 -0.00840185 -0.00733837 -0.00837084 -0.0063157 -0.00733837 -0.0061463 -0.00723266 -0.00733837 -0.00837084 -0.00723266 -0.00833302 -0.00840185 -0.0093726 -0.00837084 -0.0093943 -0.0093726 -0.010313 -0.0093943 -0.0103886 -0.00837084 -0.0093943 -0.00833302 -0.00942746 -0.0093943 -0.0103886 -0.00942746 -0.0104942 -0.0102689 -0.011103 -0.0102694 -0.0111234 -0.011103 -0.0118692 -0.0111234 -0.011909 -0.0102694 -0.0111234 -0.010313 -0.0112035 -0.0111234 -0.011909 -0.0112035 -0.0120245 -0.0118692 -0.0125505 -0.011909 -0.0126086 -0.0125505 -0.0131317 -0.0126086 -0.0132061 -0.011909 -0.0126086 -0.0120245 -0.0127567 -0.0126086 -0.0132061 -0.0127567 -0.0133826 -0.010313 -0.0112035 -0.0103886 -0.0113327 -0.0112035 -0.0120245 -0.0113327 -0.0122049 -0.0103886 -0.0113327 -0.0104942 -0.0115102 -0.0113327 -0.0122049 -0.0115102 -0.0124516 -0.0120245 -0.0127567 -0.0122049 -0.0129844 -0.0127567 -0.0133826 -0.0129844 -0.0136514 -0.0122049 -0.0129844 -0.0124516 -0.0132948 -0.0129844 -0.0136514 -0.0132948 -0.0140173 -0.0155294 -0.016094 -0.0124303 -0.0128719 -0.016094 -0.0164942 -0.0128719 -0.0131911 -0.0124303 -0.0128719 -0.0134614 -0.0139354 -0.0128719 -0.0131911 -0.0139354 -0.0142826 -0.0164942 -0.0167195 -0.0131911 -0.01338 -0.0167195 -0.0167594 -0.01338 -0.0134546 -0.0131911 -0.01338 -0.0142826 -0.0144973 -0.01338 -0.0134546 -0.0144973 -0.0145939 -0.0134614 -0.0139354 -0.0131012 -0.0135629 -0.0139354 -0.0142826 -0.0135629 -0.0139041 -0.0131012 -0.0135629 -0.0131317 -0.0136001 -0.0135629 -0.0139041 -0.0136001 -0.013947 -0.0142826 -0.0144973 -0.0139041 -0.0141191 -0.0144973 -0.0145939 -0.0141191 -0.0142216 -0.0139041 -0.0141191 -0.013947 -0.0141657 -0.0141191 -0.0142216 -0.0141657 -0.014268 -0.0167594 -0.0166653 -0.0134546 -0.0133589 -0.0166653 -0.0164255 -0.0133589 -0.0135021 -0.0134546 -0.0133589 -0.0145939 -0.0145266 -0.0133589 -0.0135021 -0.0145266 -0.0146625 -0.0164255 -0.0153952 -0.0135021 -0.0120549 -0.0153952 -0.0167636 -0.0120549 -0.0151929 -0.0135021 -0.0120549 -0.0146625 -0.0132282 -0.0120549 -0.0151929 -0.0132282 -0.0157025 -0.0145939 -0.0145266 -0.0142216 -0.014159 -0.0145266 -0.0146625 -0.014159 -0.0143003 -0.0142216 -0.014159 -0.014268 -0.0141987 -0.014159 -0.0143003 -0.0141987 -0.014314 -0.0146625 -0.0132282 -0.0143003 -0.0128279 -0.0132282 -0.0157025 -0.0128279 -0.0154461 -0.0143003 -0.0128279 -0.014314 -0.0128108 -0.0128279 -0.0154461 -0.0128108 -0.0152609 -0.0131317 -0.0136001 -0.0132061 -0.0136879 -0.0136001 -0.013947 -0.0136879 -0.014044 -0.0132061 -0.0136879 -0.0133826 -0.013887 -0.0136879 -0.014044 -0.013887 -0.0142587 -0.013947 -0.0141657 -0.014044 -0.0142667 -0.0141657 -0.014268 -0.0142667 -0.0143658 -0.014044 -0.0142667 -0.0142587 -0.0144884 -0.0142667 -0.0143658 -0.0144884 -0.0145846 -0.0133826 -0.013887 -0.0136514 -0.0141887 -0.013887 -0.0142587 -0.0141887 -0.0145834 -0.0136514 -0.0141887 -0.0140173 -0.0145994 -0.0141887 -0.0145834 -0.0145994 -0.0150259 -0.0142587 -0.0144884 -0.0145834 -0.0148244 -0.0144884 -0.0145846 -0.0148244 -0.0149197 -0.0145834 -0.0148244 -0.0150259 -0.0152841 -0.0148244 -0.0149197 -0.0152841 -0.0153817 -0.014268 -0.0141987 -0.0143658 -0.0142834 -0.0141987 -0.014314 -0.0142834 -0.0143734 -0.0143658 -0.0142834 -0.0145846 -0.0144875 -0.0142834 -0.0143734 -0.0144875 -0.0145537 -0.014314 -0.0128108 -0.0143734 -0.0128263 -0.0128108 -0.0152609 -0.0128263 -0.0152389 -0.0143734 -0.0128263 -0.0145537 -0.0129588 -0.0128263 -0.0152389 -0.0129588 -0.0153507 -0.0145846 -0.0144875 -0.0149197 -0.0148081 -0.0144875 -0.0145537 -0.0148081 -0.0148536 -0.0149197 -0.0148081 -0.0153817 -0.0152561 -0.0148081 -0.0148536 -0.0152561 -0.0152827 -0.0145537 -0.0129588 -0.0148536 -0.013201 -0.0129588 -0.0153507 -0.013201 -0.0156044 -0.0148536 -0.013201 -0.0152827 -0.01356 -0.013201 -0.0156044 -0.01356 -0.015998 -0.0061463 -0.00723266 -0.00592627 -0.00709358 -0.00723266 -0.00833302 -0.00709358 -0.00828032 -0.00592627 -0.00709358 -0.00564305 -0.00690924 -0.00709358 -0.00828032 -0.00690924 -0.0082019 -0.00833302 -0.00942746 -0.00828032 -0.00946519 -0.00942746 -0.0104942 -0.00946519 -0.0106246 -0.00828032 -0.00946519 -0.0082019 -0.0094982 -0.00946519 -0.0106246 -0.0094982 -0.0107723 -0.00564305 -0.00690924 -0.00528029 -0.00666386 -0.00690924 -0.0082019 -0.00666386 -0.00808305 -0.00528029 -0.00666386 -0.00481735 -0.00633714 -0.00666386 -0.00808305 -0.00633714 -0.00790438 -0.0082019 -0.0094982 -0.00808305 -0.00951347 -0.0094982 -0.0107723 -0.00951347 -0.0109269 -0.00808305 -0.00951347 -0.00790438 -0.00949327 -0.00951347 -0.0109269 -0.00949327 -0.0110731 -0.0104942 -0.0115102 -0.0106246 -0.0117329 -0.0115102 -0.0124516 -0.0117329 -0.0127633 -0.0106246 -0.0117329 -0.0107723 -0.0119958 -0.0117329 -0.0127633 -0.0119958 -0.0131381 -0.0124516 -0.0132948 -0.0127633 -0.0136889 -0.0132948 -0.0140173 -0.0136889 -0.0144838 -0.0127633 -0.0136889 -0.0131381 -0.0141681 -0.0136889 -0.0144838 -0.0141681 -0.0150553 -0.0107723 -0.0119958 -0.0109269 -0.0122914 -0.0119958 -0.0131381 -0.0122914 -0.0135721 -0.0109269 -0.0122914 -0.0110731 -0.0126081 -0.0122914 -0.0135721 -0.0126081 -0.0140582 -0.0131381 -0.0141681 -0.0135721 -0.0147325 -0.0141681 -0.0150553 -0.0147325 -0.0157363 -0.0135721 -0.0147325 -0.0140582 -0.0153802 -0.0147325 -0.0157363 -0.0153802 -0.0165303 -0.00481735 -0.00633714 -0.0042286 -0.00590328 -0.00633714 -0.00790438 -0.00590328 -0.00764062 -0.0042286 -0.00590328 -0.00348294 -0.00533024 -0.00590328 -0.00764062 -0.00533024 -0.00725942 -0.00790438 -0.00949327 -0.00764062 -0.00941377 -0.00949327 -0.0110731 -0.00941377 -0.0111896 -0.00764062 -0.00941377 -0.00725942 -0.00924332 -0.00941377 -0.0111896 -0.00924332 -0.011247 -0.00348294 -0.00533024 -0.00254327 -0.00457886 -0.00533024 -0.00725942 -0.00457886 -0.00671999 -0.00254327 -0.00457886 -0.0013666 -0.00360245 -0.00457886 -0.00671999 -0.00360245 -0.00597206 -0.00725942 -0.00924332 -0.00671999 -0.00894049 -0.00924332 -0.011247 -0.00894049 -0.0112048 -0.00671999 -0.00894049 -0.00597206 -0.00845218 -0.00894049 -0.0112048 -0.00845218 -0.0110087 -0.0110731 -0.0126081 -0.0111896 -0.0129285 -0.0126081 -0.0140582 -0.0129285 -0.0145842 -0.0111896 -0.01