# vtk DataFile Version 3.0
#This file was generated by the deal.II library on 2026/1/5 at 14:19:28
ASCII
DATASET UNSTRUCTURED_GRID

POINTS 4096 double
0 0 0
0.03125 0 0
0 0.03125 0
0.03125 0.03125 0
0.03125 0 0
0.0625 0 0
0.03125 0.03125 0
0.0625 0.03125 0
0 0.03125 0
0.03125 0.03125 0
0 0.0625 0
0.03125 0.0625 0
0.03125 0.03125 0
0.0625 0.03125 0
0.03125 0.0625 0
0.0625 0.0625 0
0.0625 0 0
0.09375 0 0
0.0625 0.03125 0
0.09375 0.03125 0
0.09375 0 0
0.125 0 0
0.09375 0.03125 0
0.125 0.03125 0
0.0625 0.03125 0
0.09375 0.03125 0
0.0625 0.0625 0
0.09375 0.0625 0
0.09375 0.03125 0
0.125 0.03125 0
0.09375 0.0625 0
0.125 0.0625 0
0 0.0625 0
0.03125 0.0625 0
0 0.09375 0
0.03125 0.09375 0
0.03125 0.0625 0
0.0625 0.0625 0
0.03125 0.09375 0
0.0625 0.09375 0
0 0.09375 0
0.03125 0.09375 0
0 0.125 0
0.03125 0.125 0
0.03125 0.09375 0
0.0625 0.09375 0
0.03125 0.125 0
0.0625 0.125 0
0.0625 0.0625 0
0.09375 0.0625 0
0.0625 0.09375 0
0.09375 0.09375 0
0.09375 0.0625 0
0.125 0.0625 0
0.09375 0.09375 0
0.125 0.09375 0
0.0625 0.09375 0
0.09375 0.09375 0
0.0625 0.125 0
0.09375 0.125 0
0.09375 0.09375 0
0.125 0.09375 0
0.09375 0.125 0
0.125 0.125 0
0.125 0 0
0.15625 0 0
0.125 0.03125 0
0.15625 0.03125 0
0.15625 0 0
0.1875 0 0
0.15625 0.03125 0
0.1875 0.03125 0
0.125 0.03125 0
0.15625 0.03125 0
0.125 0.0625 0
0.15625 0.0625 0
0.15625 0.03125 0
0.1875 0.03125 0
0.15625 0.0625 0
0.1875 0.0625 0
0.1875 0 0
0.21875 0 0
0.1875 0.03125 0
0.21875 0.03125 0
0.21875 0 0
0.25 0 0
0.21875 0.03125 0
0.25 0.03125 0
0.1875 0.03125 0
0.21875 0.03125 0
0.1875 0.0625 0
0.21875 0.0625 0
0.21875 0.03125 0
0.25 0.03125 0
0.21875 0.0625 0
0.25 0.0625 0
0.125 0.0625 0
0.15625 0.0625 0
0.125 0.09375 0
0.15625 0.09375 0
0.15625 0.0625 0
0.1875 0.0625 0
0.15625 0.09375 0
0.1875 0.09375 0
0.125 0.09375 0
0.15625 0.09375 0
0.125 0.125 0
0.15625 0.125 0
0.15625 0.09375 0
0.1875 0.09375 0
0.15625 0.125 0
0.1875 0.125 0
0.1875 0.0625 0
0.21875 0.0625 0
0.1875 0.09375 0
0.21875 0.09375 0
0.21875 0.0625 0
0.25 0.0625 0
0.21875 0.09375 0
0.25 0.09375 0
0.1875 0.09375 0
0.21875 0.09375 0
0.1875 0.125 0
0.21875 0.125 0
0.21875 0.09375 0
0.25 0.09375 0
0.21875 0.125 0
0.25 0.125 0
0 0.125 0
0.03125 0.125 0
0 0.15625 0
0.03125 0.15625 0
0.03125 0.125 0
0.0625 0.125 0
0.03125 0.15625 0
0.0625 0.15625 0
0 0.15625 0
0.03125 0.15625 0
0 0.1875 0
0.03125 0.1875 0
0.03125 0.15625 0
0.0625 0.15625 0
0.03125 0.1875 0
0.0625 0.1875 0
0.0625 0.125 0
0.09375 0.125 0
0.0625 0.15625 0
0.09375 0.15625 0
0.09375 0.125 0
0.125 0.125 0
0.09375 0.15625 0
0.125 0.15625 0
0.0625 0.15625 0
0.09375 0.15625 0
0.0625 0.1875 0
0.09375 0.1875 0
0.09375 0.15625 0
0.125 0.15625 0
0.09375 0.1875 0
0.125 0.1875 0
0 0.1875 0
0.03125 0.1875 0
0 0.21875 0
0.03125 0.21875 0
0.03125 0.1875 0
0.0625 0.1875 0
0.03125 0.21875 0
0.0625 0.21875 0
0 0.21875 0
0.03125 0.21875 0
0 0.25 0
0.03125 0.25 0
0.03125 0.21875 0
0.0625 0.21875 0
0.03125 0.25 0
0.0625 0.25 0
0.0625 0.1875 0
0.09375 0.1875 0
0.0625 0.21875 0
0.09375 0.21875 0
0.09375 0.1875 0
0.125 0.1875 0
0.09375 0.21875 0
0.125 0.21875 0
0.0625 0.21875 0
0.09375 0.21875 0
0.0625 0.25 0
0.09375 0.25 0
0.09375 0.21875 0
0.125 0.21875 0
0.09375 0.25 0
0.125 0.25 0
0.125 0.125 0
0.15625 0.125 0
0.125 0.15625 0
0.15625 0.15625 0
0.15625 0.125 0
0.1875 0.125 0
0.15625 0.15625 0
0.1875 0.15625 0
0.125 0.15625 0
0.15625 0.15625 0
0.125 0.1875 0
0.15625 0.1875 0
0.15625 0.15625 0
0.1875 0.15625 0
0.15625 0.1875 0
0.1875 0.1875 0
0.1875 0.125 0
0.21875 0.125 0
0.1875 0.15625 0
0.21875 0.15625 0
0.21875 0.125 0
0.25 0.125 0
0.21875 0.15625 0
0.25 0.15625 0
0.1875 0.15625 0
0.21875 0.15625 0
0.1875 0.1875 0
0.21875 0.1875 0
0.21875 0.15625 0
0.25 0.15625 0
0.21875 0.1875 0
0.25 0.1875 0
0.125 0.1875 0
0.15625 0.1875 0
0.125 0.21875 0
0.15625 0.21875 0
0.15625 0.1875 0
0.1875 0.1875 0
0.15625 0.21875 0
0.1875 0.21875 0
0.125 0.21875 0
0.15625 0.21875 0
0.125 0.25 0
0.15625 0.25 0
0.15625 0.21875 0
0.1875 0.21875 0
0.15625 0.25 0
0.1875 0.25 0
0.1875 0.1875 0
0.21875 0.1875 0
0.1875 0.21875 0
0.21875 0.21875 0
0.21875 0.1875 0
0.25 0.1875 0
0.21875 0.21875 0
0.25 0.21875 0
0.1875 0.21875 0
0.21875 0.21875 0
0.1875 0.25 0
0.21875 0.25 0
0.21875 0.21875 0
0.25 0.21875 0
0.21875 0.25 0
0.25 0.25 0
0.25 0 0
0.28125 0 0
0.25 0.03125 0
0.28125 0.03125 0
0.28125 0 0
0.3125 0 0
0.28125 0.03125 0
0.3125 0.03125 0
0.25 0.03125 0
0.28125 0.03125 0
0.25 0.0625 0
0.28125 0.0625 0
0.28125 0.03125 0
0.3125 0.03125 0
0.28125 0.0625 0
0.3125 0.0625 0
0.3125 0 0
0.34375 0 0
0.3125 0.03125 0
0.34375 0.03125 0
0.34375 0 0
0.375 0 0
0.34375 0.03125 0
0.375 0.03125 0
0.3125 0.03125 0
0.34375 0.03125 0
0.3125 0.0625 0
0.34375 0.0625 0
0.34375 0.03125 0
0.375 0.03125 0
0.34375 0.0625 0
0.375 0.0625 0
0.25 0.0625 0
0.28125 0.0625 0
0.25 0.09375 0
0.28125 0.09375 0
0.28125 0.0625 0
0.3125 0.0625 0
0.28125 0.09375 0
0.3125 0.09375 0
0.25 0.09375 0
0.28125 0.09375 0
0.25 0.125 0
0.28125 0.125 0
0.28125 0.09375 0
0.3125 0.09375 0
0.28125 0.125 0
0.3125 0.125 0
0.3125 0.0625 0
0.34375 0.0625 0
0.3125 0.09375 0
0.34375 0.09375 0
0.34375 0.0625 0
0.375 0.0625 0
0.34375 0.09375 0
0.375 0.09375 0
0.3125 0.09375 0
0.34375 0.09375 0
0.3125 0.125 0
0.34375 0.125 0
0.34375 0.09375 0
0.375 0.09375 0
0.34375 0.125 0
0.375 0.125 0
0.375 0 0
0.40625 0 0
0.375 0.03125 0
0.40625 0.03125 0
0.40625 0 0
0.4375 0 0
0.40625 0.03125 0
0.4375 0.03125 0
0.375 0.03125 0
0.40625 0.03125 0
0.375 0.0625 0
0.40625 0.0625 0
0.40625 0.03125 0
0.4375 0.03125 0
0.40625 0.0625 0
0.4375 0.0625 0
0.4375 0 0
0.46875 0 0
0.4375 0.03125 0
0.46875 0.03125 0
0.46875 0 0
0.5 0 0
0.46875 0.03125 0
0.5 0.03125 0
0.4375 0.03125 0
0.46875 0.03125 0
0.4375 0.0625 0
0.46875 0.0625 0
0.46875 0.03125 0
0.5 0.03125 0
0.46875 0.0625 0
0.5 0.0625 0
0.375 0.0625 0
0.40625 0.0625 0
0.375 0.09375 0
0.40625 0.09375 0
0.40625 0.0625 0
0.4375 0.0625 0
0.40625 0.09375 0
0.4375 0.09375 0
0.375 0.09375 0
0.40625 0.09375 0
0.375 0.125 0
0.40625 0.125 0
0.40625 0.09375 0
0.4375 0.09375 0
0.40625 0.125 0
0.4375 0.125 0
0.4375 0.0625 0
0.46875 0.0625 0
0.4375 0.09375 0
0.46875 0.09375 0
0.46875 0.0625 0
0.5 0.0625 0
0.46875 0.09375 0
0.5 0.09375 0
0.4375 0.09375 0
0.46875 0.09375 0
0.4375 0.125 0
0.46875 0.125 0
0.46875 0.09375 0
0.5 0.09375 0
0.46875 0.125 0
0.5 0.125 0
0.25 0.125 0
0.28125 0.125 0
0.25 0.15625 0
0.28125 0.15625 0
0.28125 0.125 0
0.3125 0.125 0
0.28125 0.15625 0
0.3125 0.15625 0
0.25 0.15625 0
0.28125 0.15625 0
0.25 0.1875 0
0.28125 0.1875 0
0.28125 0.15625 0
0.3125 0.15625 0
0.28125 0.1875 0
0.3125 0.1875 0
0.3125 0.125 0
0.34375 0.125 0
0.3125 0.15625 0
0.34375 0.15625 0
0.34375 0.125 0
0.375 0.125 0
0.34375 0.15625 0
0.375 0.15625 0
0.3125 0.15625 0
0.34375 0.15625 0
0.3125 0.1875 0
0.34375 0.1875 0
0.34375 0.15625 0
0.375 0.15625 0
0.34375 0.1875 0
0.375 0.1875 0
0.25 0.1875 0
0.28125 0.1875 0
0.25 0.21875 0
0.28125 0.21875 0
0.28125 0.1875 0
0.3125 0.1875 0
0.28125 0.21875 0
0.3125 0.21875 0
0.25 0.21875 0
0.28125 0.21875 0
0.25 0.25 0
0.28125 0.25 0
0.28125 0.21875 0
0.3125 0.21875 0
0.28125 0.25 0
0.3125 0.25 0
0.3125 0.1875 0
0.34375 0.1875 0
0.3125 0.21875 0
0.34375 0.21875 0
0.34375 0.1875 0
0.375 0.1875 0
0.34375 0.21875 0
0.375 0.21875 0
0.3125 0.21875 0
0.34375 0.21875 0
0.3125 0.25 0
0.34375 0.25 0
0.34375 0.21875 0
0.375 0.21875 0
0.34375 0.25 0
0.375 0.25 0
0.375 0.125 0
0.40625 0.125 0
0.375 0.15625 0
0.40625 0.15625 0
0.40625 0.125 0
0.4375 0.125 0
0.40625 0.15625 0
0.4375 0.15625 0
0.375 0.15625 0
0.40625 0.15625 0
0.375 0.1875 0
0.40625 0.1875 0
0.40625 0.15625 0
0.4375 0.15625 0
0.40625 0.1875 0
0.4375 0.1875 0
0.4375 0.125 0
0.46875 0.125 0
0.4375 0.15625 0
0.46875 0.15625 0
0.46875 0.125 0
0.5 0.125 0
0.46875 0.15625 0
0.5 0.15625 0
0.4375 0.15625 0
0.46875 0.15625 0
0.4375 0.1875 0
0.46875 0.1875 0
0.46875 0.15625 0
0.5 0.15625 0
0.46875 0.1875 0
0.5 0.1875 0
0.375 0.1875 0
0.40625 0.1875 0
0.375 0.21875 0
0.40625 0.21875 0
0.40625 0.1875 0
0.4375 0.1875 0
0.40625 0.21875 0
0.4375 0.21875 0
0.375 0.21875 0
0.40625 0.21875 0
0.375 0.25 0
0.40625 0.25 0
0.40625 0.21875 0
0.4375 0.21875 0
0.40625 0.25 0
0.4375 0.25 0
0.4375 0.1875 0
0.46875 0.1875 0
0.4375 0.21875 0
0.46875 0.21875 0
0.46875 0.1875 0
0.5 0.1875 0
0.46875 0.21875 0
0.5 0.21875 0
0.4375 0.21875 0
0.46875 0.21875 0
0.4375 0.25 0
0.46875 0.25 0
0.46875 0.21875 0
0.5 0.21875 0
0.46875 0.25 0
0.5 0.25 0
0 0.25 0
0.03125 0.25 0
0 0.28125 0
0.03125 0.28125 0
0.03125 0.25 0
0.0625 0.25 0
0.03125 0.28125 0
0.0625 0.28125 0
0 0.28125 0
0.03125 0.28125 0
0 0.3125 0
0.03125 0.3125 0
0.03125 0.28125 0
0.0625 0.28125 0
0.03125 0.3125 0
0.0625 0.3125 0
0.0625 0.25 0
0.09375 0.25 0
0.0625 0.28125 0
0.09375 0.28125 0
0.09375 0.25 0
0.125 0.25 0
0.09375 0.28125 0
0.125 0.28125 0
0.0625 0.28125 0
0.09375 0.28125 0
0.0625 0.3125 0
0.09375 0.3125 0
0.09375 0.28125 0
0.125 0.28125 0
0.09375 0.3125 0
0.125 0.3125 0
0 0.3125 0
0.03125 0.3125 0
0 0.34375 0
0.03125 0.34375 0
0.03125 0.3125 0
0.0625 0.3125 0
0.03125 0.34375 0
0.0625 0.34375 0
0 0.34375 0
0.03125 0.34375 0
0 0.375 0
0.03125 0.375 0
0.03125 0.34375 0
0.0625 0.34375 0
0.03125 0.375 0
0.0625 0.375 0
0.0625 0.3125 0
0.09375 0.3125 0
0.0625 0.34375 0
0.09375 0.34375 0
0.09375 0.3125 0
0.125 0.3125 0
0.09375 0.34375 0
0.125 0.34375 0
0.0625 0.34375 0
0.09375 0.34375 0
0.0625 0.375 0
0.09375 0.375 0
0.09375 0.34375 0
0.125 0.34375 0
0.09375 0.375 0
0.125 0.375 0
0.125 0.25 0
0.15625 0.25 0
0.125 0.28125 0
0.15625 0.28125 0
0.15625 0.25 0
0.1875 0.25 0
0.15625 0.28125 0
0.1875 0.28125 0
0.125 0.28125 0
0.15625 0.28125 0
0.125 0.3125 0
0.15625 0.3125 0
0.15625 0.28125 0
0.1875 0.28125 0
0.15625 0.3125 0
0.1875 0.3125 0
0.1875 0.25 0
0.21875 0.25 0
0.1875 0.28125 0
0.21875 0.28125 0
0.21875 0.25 0
0.25 0.25 0
0.21875 0.28125 0
0.25 0.28125 0
0.1875 0.28125 0
0.21875 0.28125 0
0.1875 0.3125 0
0.21875 0.3125 0
0.21875 0.28125 0
0.25 0.28125 0
0.21875 0.3125 0
0.25 0.3125 0
0.125 0.3125 0
0.15625 0.3125 0
0.125 0.34375 0
0.15625 0.34375 0
0.15625 0.3125 0
0.1875 0.3125 0
0.15625 0.34375 0
0.1875 0.34375 0
0.125 0.34375 0
[...]
POINT_DATA 4096
SCALARS p double 1
LOOKUP_TABLE default
-1.20377e-07 3.42607e-05 -3.51374e-05 1.70985e-07 3.42607e-05 -0.000296099 1.70985e-07 -0.00026203 -3.51374e-05 1.70985e-07 0.000293457 0.000263115 1.70985e-07 -0.00026203 0.000263115 -5.38902e-07 -0.000296099 -0.00111344 -0.00026203 -0.000907753 -0.00111344 -0.00239786 -0.000907753 -0.0019182 -0.00026203 -0.000907753 -5.38902e-07 -0.000750381 -0.000907753 -0.0019182 -0.000750381 -0.00189855 0.000293457 0.000263115 0.00111478 0.000914867 0.000263115 -5.38902e-07 0.000914867 0.000746487 0.00111478 0.000914867 0.0024271 0.00195076 0.000914867 0.000746487 0.00195076 0.0019075 -5.38902e-07 -0.000750381 0.000746487 -1.66278e-05 -0.000750381 -0.00189855 -1.66278e-05 -0.00115385 0.000746487 -1.66278e-05 0.0019075 0.0010906 -1.66278e-05 -0.00115385 0.0010906 -7.99899e-05 -0.00239786 -0.00413026 -0.0019182 -0.00328529 -0.00413026 -0.00629146 -0.00328529 -0.00499345 -0.0019182 -0.00328529 -0.00189855 -0.00345034 -0.00328529 -0.00499345 -0.00345034 -0.00538678 -0.00629146 -0.00885767 -0.00499345 -0.00702397 -0.00885767 -0.0118008 -0.00702397 -0.00935479 -0.00499345 -0.00702397 -0.00538678 -0.00768667 -0.00702397 -0.00935479 -0.00768667 -0.010325 -0.00189855 -0.00345034 -0.00115385 -0.00269606 -0.00345034 -0.00538678 -0.00269606 -0.00462134 -0.00115385 -0.00269606 -7.99899e-05 -0.00167282 -0.00269606 -0.00462134 -0.00167282 -0.0036608 -0.00538678 -0.00768667 -0.00462134 -0.00690864 -0.00768667 -0.010325 -0.00690864 -0.00953303 -0.00462134 -0.00690864 -0.0036608 -0.00602218 -0.00690864 -0.00953303 -0.00602218 -0.00873108 0.0024271 0.00195076 0.00424013 0.00338541 0.00195076 0.0019075 0.00338541 0.00351348 0.00424013 0.00338541 0.00657404 0.00523425 0.00338541 0.00351348 0.00523425 0.0055804 0.0019075 0.0010906 0.00351348 0.0026269 0.0010906 -7.99899e-05 0.0026269 0.00141521 0.00351348 0.0026269 0.0055804 0.00460435 0.0026269 0.00141521 0.00460435 0.0033389 0.00657404 0.00523425 0.00945475 0.00751788 0.00523425 0.0055804 0.00751788 0.00813139 0.00945475 0.00751788 0.0129147 0.010262 0.00751788 0.00813139 0.010262 0.0111952 0.0055804 0.00460435 0.00813139 0.00704506 0.00460435 0.0033389 0.00704506 0.00571238 0.00813139 0.00704506 0.0111952 0.00997633 0.00704506 0.00571238 0.00997633 0.00856187 -7.99899e-05 -0.00167282 0.00141521 -0.00024064 -0.00167282 -0.0036608 -0.00024064 -0.00230695 0.00141521 -0.00024064 0.0033389 0.00160122 -0.00024064 -0.00230695 0.00160122 -0.000566609 -0.0036608 -0.00602218 -0.00230695 -0.0047609 -0.00602218 -0.00873108 -0.0047609 -0.00757543 -0.00230695 -0.0047609 -0.000566609 -0.00314045 -0.0047609 -0.00757543 -0.00314045 -0.00609163 0.0033389 0.00160122 0.00571238 0.00387291 0.00160122 -0.000566609 0.00387291 0.00157897 0.00571238 0.00387291 0.00856187 0.00659912 0.00387291 0.00157897 0.00659912 0.0041526 -0.000566609 -0.00314045 0.00157897 -0.00114359 -0.00314045 -0.00609163 -0.00114359 -0.00426405 0.00157897 -0.00114359 0.0041526 0.00125042 -0.00114359 -0.00426405 0.00125042 -0.00207415 -0.0118008 -0.0150892 -0.00935479 -0.0119607 -0.0150892 -0.0186876 -0.0119607 -0.0148138 -0.00935479 -0.0119607 -0.010325 -0.0132733 -0.0119607 -0.0148138 -0.0132733 -0.0164998 -0.0186876 -0.0225574 -0.0148138 -0.0178836 -0.0225574 -0.0266576 -0.0178836 -0.0211375 -0.0148138 -0.0178836 -0.0164998 -0.0199701 -0.0178836 -0.0211375 -0.0199701 -0.0236474 -0.010325 -0.0132733 -0.00953303 -0.0124661 -0.0132733 -0.0164998 -0.0124661 -0.0156762 -0.00953303 -0.0124661 -0.00873108 -0.0117581 -0.0124661 -0.0156762 -0.0117581 -0.0150704 -0.0164998 -0.0199701 -0.0156762 -0.0191291 -0.0199701 -0.0236474 -0.0191291 -0.022788 -0.0156762 -0.0191291 -0.0150704 -0.0186326 -0.0191291 -0.022788 -0.0186326 -0.0224069 -0.0266576 -0.030945 -0.0211375 -0.0245411 -0.030945 -0.0353745 -0.0245411 -0.0280586 -0.0211375 -0.0245411 -0.0236474 -0.0274928 -0.0245411 -0.0280586 -0.0274928 -0.0314658 -0.0353745 -0.0398997 -0.0280586 -0.0316531 -0.0398997 -0.0444733 -0.0316531 -0.035287 -0.0280586 -0.0316531 -0.0314658 -0.035525 -0.0316531 -0.035287 -0.035525 -0.0396279 -0.0236474 -0.0274928 -0.022788 -0.0266144 -0.0274928 -0.0314658 -0.0266144 -0.030568 -0.022788 -0.0266144 -0.0224069 -0.0263534 -0.0266144 -0.030568 -0.0263534 -0.0304308 -0.0314658 -0.035525 -0.030568 -0.0346076 -0.035525 -0.0396279 -0.0346076 -0.0386908 -0.030568 -0.0346076 -0.0304308 -0.0345966 -0.0346076 -0.0386908 -0.0345966 -0.0388074 -0.00873108 -0.0117581 -0.00757543 -0.0107197 -0.0117581 -0.0150704 -0.0107197 -0.0141597 -0.00757543 -0.0107197 -0.00609163 -0.00938753 -0.0107197 -0.0141597 -0.00938753 -0.0129922 -0.0150704 -0.0186326 -0.0141597 -0.0178584 -0.0186326 -0.0224069 -0.0178584 -0.0217764 -0.0141597 -0.0178584 -0.0129922 -0.0168668 -0.0178584 -0.0217764 -0.0168668 -0.0209701 -0.00609163 -0.00938753 -0.00426405 -0.00774754 -0.00938753 -0.0129922 -0.00774754 -0.0115557 -0.00426405 -0.00774754 -0.00207415 -0.00578345 -0.00774754 -0.0115557 -0.00578345 -0.00983632 -0.0129922 -0.0168668 -0.0115557 -0.0156475 -0.0168668 -0.0209701 -0.0156475 -0.0199792 -0.0115557 -0.0156475 -0.00983632 -0.0141887 -0.0156475 -0.0199792 -0.0141887 -0.0187941 -0.0224069 -0.0263534 -0.0217764 -0.0258727 -0.0263534 -0.0304308 -0.0258727 -0.0301043 -0.0217764 -0.0258727 -0.0209701 -0.0252591 -0.0258727 -0.0301043 -0.0252591 -0.029689 -0.0304308 -0.0345966 -0.0301043 -0.0344272 -0.0345966 -0.0388074 -0.0344272 -0.0387968 -0.0301043 -0.0344272 -0.029689 -0.034214 -0.0344272 -0.0387968 -0.034214 -0.0387877 -0.0209701 -0.0252591 -0.0199792 -0.0245055 -0.0252591 -0.029689 -0.0245055 -0.0291794 -0.0199792 -0.0245055 -0.0187941 -0.0236045 -0.0245055 -0.0291794 -0.0236045 -0.0285703 -0.029689 -0.034214 -0.0291794 -0.033953 -0.034214 -0.0387877 -0.033953 -0.0387776 -0.0291794 -0.033953 -0.0285703 -0.033641 -0.033953 -0.0387776 -0.033641 -0.0387654 0.0129147 0.010262 0.0169936 0.0134979 0.010262 0.0111952 0.0134979 0.0148068 0.0169936 0.0134979 0.0217383 0.0172628 0.0134979 0.0148068 0.0172628 0.0190076 0.0111952 0.00997633 0.0148068 0.0134311 0.00997633 0.00856187 0.0134311 0.0119189 0.0148068 0.0134311 0.0190076 0.0174488 0.0134311 0.0119189 0.0174488 0.0158209 0.0217383 0.0172628 0.0272045 0.0216008 0.0172628 0.0190076 0.0216008 0.0238466 0.0272045 0.0216008 0.0334576 0.0265635 0.0216008 0.0238466 0.0265635 0.0293816 0.0190076 0.0174488 0.0238466 0.0220754 0.0174488 0.0158209 0.0220754 0.0203117 0.0238466 0.0220754 0.0293816 0.0273651 0.0220754 0.0203117 0.0273651 0.0254424 0.00856187 0.00659912 0.0119189 0.00980936 0.00659912 0.0041526 0.00980936 0.00718148 0.0119189 0.00980936 0.0158209 0.0135385 0.00980936 0.00718148 0.0135385 0.0106974 0.0041526 0.00125042 0.00718148 0.00406612 0.00125042 -0.00207415 0.00406612 0.000499756 0.00718148 0.00406612 0.0106974 0.0073321 0.00406612 0.000499756 0.0073321 0.00348286 0.0158209 0.0135385 0.0203117 0.0178272 0.0135385 0.0106974 0.0178272 0.0147375 0.0203117 0.0178272 0.0254424 0.0227225 0.0178272 0.0147375 0.0227225 0.0193439 0.0106974 0.0073321 0.0147375 0.0110812 0.0073321 0.00348286 0.0110812 0.00690384 0.0147375 0.0110812 0.0193439 0.0153509 0.0110812 0.00690384 0.0153509 0.0107949 0.0334576 0.0265635 0.0405742 0.0322115 0.0265635 0.0293816 0.0322115 0.0356796 0.0405742 0.0322115 0.0486439 0.0386156 0.0322115 0.0356796 0.0386156 0.0428196 0.0293816 0.0273651 0.0356796 0.0333807 0.0273651 0.0254424 0.0333807 0.031272 0.0356796 0.0333807 0.0428196 0.0401956 0.0333807 0.031272 0.0401956 0.0378686 0.0486439 0.0386156 0.0577719 0.0458592 0.0386156 0.0428196 0.0458592 0.0508936 0.0577719 0.0458592 0.0680826 0.0540403 0.0458592 0.0508936 0.0540403 0.0600102 0.0428196 0.0401956 0.0508936 0.0478949 0.0401956 0.0378686 0.0478949 0.045311 0.0508936 0.0478949 0.0600102 0.0565781 0.0478949 0.045311 0.0565781 0.0536899 0.0254424 0.0227225 0.031272 0.0282782 0.0227225 0.0193439 0.0282782 0.0245647 0.031272 0.0282782 0.0378686 0.034556 0.0282782 0.0245647 0.034556 0.0304543 0.0193439 0.0153509 0.0245647 0.0201829 0.0153509 0.0107949 0.0201829 0.0151917 0.0245647 0.0201829 0.0304543 0.0256238 0.0201829 0.0151917 0.0256238 0.020133 0.0378686 0.034556 0.045311 0.041626 0.034556 0.0304543 0.041626 0.0370731 0.045311 0.041626 0.0536899 0.0495677 0.041626 0.0370731 0.0495677 0.0444886 0.0304543 0.0256238 0.0370731 0.0317245 0.0256238 0.020133 0.0317245 0.0256604 0.0370731 0.0317245 0.0444886 0.03854 0.0317245 0.0256604 0.03854 0.0318175 -0.00207415 -0.00578345 0.000499756 -0.0034765 -0.00578345 -0.00983632 -0.0034765 -0.00781799 0.000499756 -0.0034765 0.00348286 -0.000804955 -0.0034765 -0.00781799 -0.000804955 -0.00548246 -0.00983632 -0.0141887 -0.00781799 -0.0124772 -0.0141887 -0.0187941 -0.0124772 -0.0174044 -0.00781799 -0.0124772 -0.00548246 -0.0104981 -0.0124772 -0.0174044 -0.0104981 -0.0157984 0.00348286 -0.000804955 0.00690384 0.00225565 -0.000804955 -0.00548246 0.00225565 -0.0028094 0.00690384 0.00225565 0.0107949 0.0057325 0.00225565 -0.0028094 0.0057325 0.000223616 -0.00548246 -0.0104981 -0.0028094 -0.00823499 -0.0104981 -0.0157984 -0.00823499 -0.013963 -0.0028094 -0.00823499 0.000223616 -0.00566979 -0.00823499 -0.013963 -0.00566979 -0.0118846 -0.0187941 -0.0236045 -0.0174044 -0.0225483 -0.0236045 -0.0285703 -0.0225483 -0.0278563 -0.0174044 -0.0225483 -0.0157984 -0.0213282 -0.0225483 -0.0278563 -0.0213282 -0.0270316 -0.0285703 -0.033641 -0.0278563 -0.0332751 -0.033641 -0.0387654 -0.0332751 -0.0387506 -0.0278563 -0.0332751 -0.0270316 -0.0328522 -0.0332751 -0.0387506 -0.0328522 -0.0387329 -0.0157984 -0.0213282 -0.013963 -0.0199345 -0.0213282 -0.0270316 -0.0199345 -0.0260898 -0.013963 -0.0199345 -0.0118846 -0.0183572 -0.0199345 -0.0260898 -0.0183572 -0.025024 -0.0270316 -0.0328522 -0.0260898 -0.0323688 -0.0328522 -0.0387329 -0.0323688 -0.0387116 -0.0260898 -0.0323688 -0.025024 -0.0318214 -0.0323688 -0.0387116 -0.0318214 -0.0386861 0.0107949 0.0057325 0.0151917 0.00965519 0.0057325 0.000223616 0.00965519 0.00364061 0.0151917 0.00965519 0.020133 0.0140554 0.00965519 0.00364061 0.0140554 0.00746665 0.000223616 -0.00566979 0.00364061 -0.0027836 -0.00566979 -0.0118846 -0.0027836 -0.00954857 0.00364061 -0.0027836 0.00746665 0.000442905 -0.0027836 -0.00954857 0.000442905 -0.00694057 0.020133 0.0140554 0.0256604 0.018966 0.0140554 0.00746665 0.018966 0.0117271 0.0256604 0.018966 0.0318175 0.0244202 0.018966 0.0117271 0.0244202 0.0164466 0.00746665 0.000442905 0.0117271 0.00402871 0.000442905 -0.00694057 0.00402871 -0.00404686 0.0117271 0.00402871 0.0164466 0.00799128 0.00402871 -0.00404686 0.00799128 -0.000855482 -0.0118846 -0.0183572 -0.00954857 -0.0165858 -0.0183572 -0.025024 -0.0165858 -0.0238274 -0.00954857 -0.0165858 -0.00694057 -0.01461 -0.0165858 -0.0238274 -0.01461 -0.0224932 -0.025024 -0.0318214 -0.0238274 -0.0312062 -0.0318214 -0.0386861 -0.0312062 -0.0386559 -0.0238274 -0.0312062 -0.0224932 -0.0305196 -0.0312062 -0.0386559 -0.0305196 -0.03862 -0.00694057 -0.01461 -0.00404686 -0.0124203 -0.01461 -0.0224932 -0.0124203 -0.0210153 -0.00404686 -0.0124203 -0.000855482 -0.0100088 -0.0124203 -0.0210153 -0.0100088 -0.0193888 -0.0224932 -0.0305196 -0.0210153 -0.0297583 -0.0305196 -0.03862 -0.0297583 -0.0385777 -0.0210153 -0.0297583 -0.0193888 -0.0289195 -0.0297583 -0.0385777 -0.0289195 -0.0385281 -0.0444733 -0.0490476 -0.035287 -0.0389222 -0.0490476 -0.0535748 -0.0389222 -0.0425205 -0.035287 -0.0389222 -0.0396279 -0.0437317 -0.0389222 -0.0425205 -0.0437317 -0.0477935 -0.0535748 -0.0580077 -0.0425205 -0.0460444 -0.0580077 -0.0622998 -0.0460444 -0.0494565 -0.0425205 -0.0460444 -0.0477935 -0.0517709 -0.0460444 -0.0494565 -0.0517709 -0.0556221 -0.0396279 -0.0437317 -0.0386908 -0.0427752 -0.0437317 -0.0477935 -0.0427752 -0.0468182 -0.0386908 -0.0427752 -0.0388074 -0.0430195 -0.0427752 -0.0468182 -0.0430195 -0.0471891 -0.0477935 -0.0517709 -0.0468182 -0.0507775 -0.0517709 -0.0556221 -0.0507775 -0.0546115 -0.0468182 -0.0507775 -0.0471891 -0.0512728 -0.0507775 -0.0546115 -0.0512728 -0.0552279 -0.0622998 -0.0664058 -0.0494565 -0.0527209 -0.0664058 -0.0702825 -0.0527209 -0.0558027 -0.0494565 -0.0527209 -0.0556221 -0.0593066 -0.0527209 -0.0558027 -0.0593066 -0.0627852 -0.0702825 -0.0738885 -0.0558027 -0.0586691 -0.0738885 -0.0771853 -0.0586691 -0.0612891 -0.0558027 -0.0586691 -0.0627852 -0.0660211 -0.0586691 -0.0612891 -0.0660211 -0.0689794 -0.0556221 -0.0593066 -0.0546115 -0.05828 -0.0593066 -0.0627852 -0.05828 -0.0617438 -0.0546115 -0.05828 -0.0552279 -0.0590127 -0.05828 -0.0617438 -0.0590127 -0.0625871 -0.0627852 -0.0660211 -0.0617438 -0.064966 -0.0660211 -0.0689794 -0.064966 -0.0679119 -0.0617438 -0.064966 -0.0625871 -0.065913 -0.064966 -0.0679119 -0.065913 -0.0689543 -0.0388074 -0.0430195 -0.0387968 -0.0431679 -0.0430195 -0.0471891 -0.0431679 -0.0474952 -0.0387968 -0.0431679 -0.0387877 -0.0433631 -0.0431679 -0.0474952 -0.0433631 -0.0478932 -0.0471891 -0.0512728 -0.0474952 -0.051734 -0.0512728 -0.0552279 -0.051734 -0.05584 -0.0474952 -0.051734 -0.0478932 -0.0523313 -0.051734 -0.05584 -0.0523313 -0.0566314 -0.0387877 -0.0433631 -0.0387776 -0.0436042 -0.0433631 -0.0478932 -0.0436042 -0.0483836 -0.0387776 -0.0436042 -0.0387654 -0.0438921 -0.0436042 -0.0483836 -0.0438921 -0.0489695 -0.0478932 -0.0523313 -0.0483836 -0.053067 -0.0523313 -0.0566314 -0.053067 -0.0576062 -0.0483836 -0.053067 -0.0489695 -0.0539463 -0.053067 -0.0576062 -0.0539463 -0.0587716 -0.0552279 -0.0590127 -0.05584 -0.0597701 -0.0590127 -0.0625871 -0.0597701 -0.0634827 -0.05584 -0.0597701 -0.0566314 -0.0607486 -0.0597701 -0.0634827 -0.0607486 -0.0646392 -0.0625871 -0.065913 -0.0634827 -0.0669381 -0.065913 -0.0689543 -0.0669381 -0.0700988 -0.0634827 -0.0669381 -0.0646392 -0.0682617 -0.0669381 -0.0700988 -0.0682617 -0.0715765 -0.0566314 -0.0607486 -0.0576062 -0.061954 -0.0607486 -0.0646392 -0.061954 -0.0660643 -0.0576062 -0.061954 -0.0587716 -0.0633956 -0.061954 -0.0660643 -0.0633956 -0.0677695 -0.0646392 -0.0682617 -0.0660643 -0.0698931 -0.0682617 -0.0715765 -0.0698931 -0.0733986 -0.0660643 -0.0698931 -0.0677695 -0.0718464 -0.0698931 -0.0733986 -0.0718464 -0.0755814 -0.0771853 -0.0801375 -0.0612891 -0.0636343 -0.0801375 -0.0827128 -0.0636343 -0.0656796 -0.0612891 -0.0636343 -0.0689794 -0.0716281 -0.0636343 -0.0656796 -0.0716281 -0.0739381 -0.0827128 -0.0848879 -0.0656796 -0.0673994 -0.0848879 -0.0866003 -0.0673994 -0.0688125 -0.0656796 -0.0673994 -0.0739381 -0.075888 -0.0673994 -0.0688125 -0.075888 -0.0774535 -0.0689794 -0.0716281 -0.0679119 -0.0705495 -0.0716281 -0.0739381 -0.0705495 -0.0728499 -0.0679119 -0.0705495 -0.0689543 -0.0716779 -0.0705495 -0.0728499 -0.0716779 -0.0740537 -0.0739381 -0.075888 -0.0728499 -0.074789 -0.075888 -0.0774535 -0.074789 -0.0763493 -0.0728499 -0.074789 -0.0740537 -0.0760572 -0.074789 -0.0763493 -0.0760572 -0.0776696 -0.0866003 -0.0881098 -0.0688125 -0.0695418 -0.0881098 -0.0889704 -0.0695418 -0.0720867 -0.0688125 -0.0695418 -0.0774535 -0.07837 -0.0695418 -0.0720867 -0.07837 -0.0808889 -0.0889704 -0.0842122 -0.0720867 -0.0637482 -0.0842122 -0.0936735 -0.0637482 -0.0841569 -0.0720867 -0.0637482 -0.0808889 -0.0726169 -0.0637482 -0.0841569 -0.0726169 -0.0895845 -0.0774535 -0.07837 -0.0763493 -0.0772465 -0.07837 -0.0808889 -0.0772465 -0.0798787 -0.0763493 -0.0772465 -0.0776696 -0.078611 -0.0772465 -0.0798787 -0.078611 -0.0812865 -0.0808889 -0.0726169 -0.0798787 -0.0713849 -0.0726169 -0.0895845 -0.0713849 -0.0903739 -0.0798787 -0.0713849 -0.0812865 -0.0727225 -0.0713849 -0.0903739 -0.0727225 -0.0914769 -0.0689543 -0.0716779 -0.0700988 -0.0729302 -0.0716779 -0.0740537 -0.0729302 -0.0754008 -0.0700988 -0.0729302 -0.0715765 -0.0745472 -0.0729302 -0.0754008 -0.0745472 -0.0771404 -0.0740537 -0.0760572 -0.0754008 -0.0774849 -0.0760572 -0.0776696 -0.0774849 -0.0791634 -0.0754008 -0.0774849 -0.0771404 -0.0793288 -0.0774849 -0.0791634 -0.0793288 -0.0810917 -0.0715765 -0.0745472 -0.0733986 -0.0765418 -0.0745472 -0.0771404 -0.0765418 -0.079287 -0.0733986 -0.0765418 -0.0755814 -0.0789326 -0.0765418 -0.079287 -0.0789326 -0.0818614 -0.0771404 -0.0793288 -0.079287 -0.0816047 -0.0793288 -0.0810917 -0.0816047 -0.0834725 -0.079287 -0.0816047 -0.0818614 -0.0843355 -0.0816047 -0.0834725 -0.0843355 -0.0863302 -0.0776696 -0.078611 -0.0791634 -0.0801477 -0.078611 -0.0812865 -0.0801477 -0.0828952 -0.0791634 -0.0801477 -0.0810917 -0.0821322 -0.0801477 -0.0828952 -0.0821322 -0.0849671 -0.0812865 -0.0727225 -0.0828952 -0.0741357 -0.0727225 -0.0914769 -0.0741357 -0.0933273 -0.0828952 -0.0741357 -0.0849671 -0.0760017 -0.0741357 -0.0933273 -0.0760017 -0.0956667 -0.0810917 -0.0821322 -0.0834725 -0.0845829 -0.0821322 -0.0849671 -0.0845829 -0.0875284 -0.0834725 -0.0845829 -0.0863302 -0.0875259 -0.0845829 -0.0875284 -0.0875259 -0.0906039 -0.0849671 -0.0760017 -0.0875284 -0.0783037 -0.0760017 -0.0956667 -0.0783037 -0.0985597 -0.0875284 -0.0783037 -0.0906039 -0.0810713 -0.0783037 -0.0985597 -0.0810713 -0.102035 -0.0387654 -0.0438921 -0.0387506 -0.0442288 -0.0438921 -0.0489695 -0.0442288 -0.0496553 -0.0387506 -0.0442288 -0.0387329 -0.0446166 -0.0442288 -0.0496553 -0.0446166 -0.0504461 -0.0489695 -0.0539463 -0.0496553 -0.0549761 -0.0539463 -0.0587716 -0.0549761 -0.0601373 -0.0496553 -0.0549761 -0.0504461 -0.0561642 -0.0549761 -0.0601373 -0.0561642 -0.0617142 -0.0387329 -0.0446166 -0.0387116 -0.0450578 -0.0446166 -0.0504461 -0.0450578 -0.0513472 -0.0387116 -0.0450578 -0.0386861 -0.0455548 -0.0450578 -0.0513472 -0.0455548 -0.0523641 -0.0504461 -0.0561642 -0.0513472 -0.0575194 -0.0561642 -0.0617142 -0.0575194 -0.0635142 -0.0513472 -0.0575194 -0.0523641 -0.0590506 -0.0575194 -0.0635142 -0.0590506 -0.0655502 -0.0587716 -0.0633956 -0.0601373 -0.065086 -0.0633956 -0.0677695 -0.065086 -0.0697704 -0.0601373 -0.065086 -0.0617142 -0.0670394 -0.065086 -0.0697704 -0.0670394 -0.0720844 -0.0677695 -0.0718464 -0.0697704 -0.0741399 -0.0718464 -0.0755814 -0.0741399 -0.0781462 -0.0697704 -0.0741399 -0.0720844 -0.0767947 -0.0741399 -0.0781462 -0.0767947 -0.0811179 -0.0617142 -0.0670394 -0.0635142 -0.0692714 -0.0670394 -0.0720844 -0.0692714 -0.0747312 -0.0635142 -0.0692714 -0.0655502 -0.0717988 -0.0692714 -0.0747312 -0.0717988 -0.0777321 -0.0720844 -0.0767947 -0.0747312 -0.0798347 -0.0767947 -0.0811179 -0.0798347 -0.0845244 -0.0747312 -0.0798347 -0.0777321 -0.083286 -0.0798347 -0.0845244 -0.083286 -0.0883972 -0.0386861 -0.0455548 -0.0386559 -0.04611 -0.0455548 -0.0523641 -0.04611 -0.0535026 -0.0386559 -0.04611 -0.03862 -0.0467256 -0.04611 -0.0535026 -0.0467256 -0.0547677 -0.0523641 -0.0590506 -0.0535026 -0.0607668 -0.0590506 -0.0655502 -0.0607668 -0.0678351 -0.0535026 -0.0607668 -0.0547677 -0.0626767 -0.0607668 -0.0678351 -0.0626767 -0.0703818 -0.03862 -0.0467256 -0.0385777 -0.047403 -0.0467256 -0.0547677 -0.047403 -0.0561637 -0.0385777 -0.047403 -0.0385281 -0.0481432 -0.047403 -0.0561637 -0.0481432 -0.0576936 -0.0547677 -0.0626767 -0.0561637 -0.0647879 -0.0626767 -0.0703818 -0.0647879 -0.073202 -0.0561637 -0.0647879 -0.0576936 -0.0671064 -0.0647879 -0.073202 -0.0671064 -0.0763057 -0.0655502 -0.0717988 -0.0678351 -0.0746392 -0.0717988 -0.0777321 -0.0746392 -0.0811098 -0.0678351 -0.0746392 -0.0703818 -0.0778104 -0.0746392 -0.0811098 -0.0778104 -0.0848879 -0.0777321 -0.083286 -0.0811098 -0.087177 -0.083286 -0.0883972 -0.087177 -0.092771 -0.0811098 -0.087177 -0.0848879 -0.091538 -0.087177 -0.092771 -0.091538 -0.0976833 -0.0703818 -0.0778104 -0.073202 -0.0813293 -0.0778104 -0.0848879 -0.0813293 -0.0890898 -0.073202 -0.0813293 -0.0763057 -0.0852112 -0.0813293 -0.0890898 -0.0852112 -0.0937377 -0.0848879 -0.091538 -0.0890898 -0.0964001 -0.091538 -0.0976833 -0.0964001 -0.103174 -0.0890898 -0.0964001 -0.0937377 -0.101794 -0.0964001 -0.103174 -0.101794 -0.109284 -0.0755814 -0.0789326 -0.0781462 -0.0817439 -0.0789326 -0.0818614 -0.0817439 -0.0848906 -0.0781462 -0.0817439 -0.0811179 -0.085004 -0.0817439 -0.0848906 -0.085004 -0.0884064 -0.0818614 -0.0843355 -0.0848906 -0.0875508 -0.0843355 -0.0863302 -0.0875508 -0.0896968 -0.0848906 -0.0875508 -0.0884064 -0.0912855 -0.0875508 -0.0896968 -0.0912855 -0.0936098 -0.0811179 -0.085004 -0.0845244 -0.0887453 -0.085004 -0.0884064 -0.0887453 -0.0924456 -0.0845244 -0.0887453