# vtk DataFile Version 3.0
#This file was generated by the deal.II library on 2026/1/5 at 14:19:34
ASCII
DATASET UNSTRUCTURED_GRID

POINTS 4096 double
0 0 0
0.03125 0 0
0 0.03125 0
0.03125 0.03125 0
0.03125 0 0
0.0625 0 0
0.03125 0.03125 0
0.0625 0.03125 0
0 0.03125 0
0.03125 0.03125 0
0 0.0625 0
0.03125 0.0625 0
0.03125 0.03125 0
0.0625 0.03125 0
0.03125 0.0625 0
0.0625 0.0625 0
0.0625 0 0
0.09375 0 0
0.0625 0.03125 0
0.09375 0.03125 0
0.09375 0 0
0.125 0 0
0.09375 0.03125 0
0.125 0.03125 0
0.0625 0.03125 0
0.09375 0.03125 0
0.0625 0.0625 0
0.09375 0.0625 0
0.09375 0.03125 0
0.125 0.03125 0
0.09375 0.0625 0
0.125 0.0625 0
0 0.0625 0
0.03125 0.0625 0
0 0.09375 0
0.03125 0.09375 0
0.03125 0.0625 0
0.0625 0.0625 0
0.03125 0.09375 0
0.0625 0.09375 0
0 0.09375 0
0.03125 0.09375 0
0 0.125 0
0.03125 0.125 0
0.03125 0.09375 0
0.0625 0.09375 0
0.03125 0.125 0
0.0625 0.125 0
0.0625 0.0625 0
0.09375 0.0625 0
0.0625 0.09375 0
0.09375 0.09375 0
0.09375 0.0625 0
0.125 0.0625 0
0.09375 0.09375 0
0.125 0.09375 0
0.0625 0.09375 0
0.09375 0.09375 0
0.0625 0.125 0
0.09375 0.125 0
0.09375 0.09375 0
0.125 0.09375 0
0.09375 0.125 0
0.125 0.125 0
0.125 0 0
0.15625 0 0
0.125 0.03125 0
0.15625 0.03125 0
0.15625 0 0
0.1875 0 0
0.15625 0.03125 0
0.1875 0.03125 0
0.125 0.03125 0
0.15625 0.03125 0
0.125 0.0625 0
0.15625 0.0625 0
0.15625 0.03125 0
0.1875 0.03125 0
0.15625 0.0625 0
0.1875 0.0625 0
0.1875 0 0
0.21875 0 0
0.1875 0.03125 0
0.21875 0.03125 0
0.21875 0 0
0.25 0 0
0.21875 0.03125 0
0.25 0.03125 0
0.1875 0.03125 0
0.21875 0.03125 0
0.1875 0.0625 0
0.21875 0.0625 0
0.21875 0.03125 0
0.25 0.03125 0
0.21875 0.0625 0
0.25 0.0625 0
0.125 0.0625 0
0.15625 0.0625 0
0.125 0.09375 0
0.15625 0.09375 0
0.15625 0.0625 0
0.1875 0.0625 0
0.15625 0.09375 0
0.1875 0.09375 0
0.125 0.09375 0
0.15625 0.09375 0
0.125 0.125 0
0.15625 0.125 0
0.15625 0.09375 0
0.1875 0.09375 0
0.15625 0.125 0
0.1875 0.125 0
0.1875 0.0625 0
0.21875 0.0625 0
0.1875 0.09375 0
0.21875 0.09375 0
0.21875 0.0625 0
0.25 0.0625 0
0.21875 0.09375 0
0.25 0.09375 0
0.1875 0.09375 0
0.21875 0.09375 0
0.1875 0.125 0
0.21875 0.125 0
0.21875 0.09375 0
0.25 0.09375 0
0.21875 0.125 0
0.25 0.125 0
0 0.125 0
0.03125 0.125 0
0 0.15625 0
0.03125 0.15625 0
0.03125 0.125 0
0.0625 0.125 0
0.03125 0.15625 0
0.0625 0.15625 0
0 0.15625 0
0.03125 0.15625 0
0 0.1875 0
0.03125 0.1875 0
0.03125 0.15625 0
0.0625 0.15625 0
0.03125 0.1875 0
0.0625 0.1875 0
0.0625 0.125 0
0.09375 0.125 0
0.0625 0.15625 0
0.09375 0.15625 0
0.09375 0.125 0
0.125 0.125 0
0.09375 0.15625 0
0.125 0.15625 0
0.0625 0.15625 0
0.09375 0.15625 0
0.0625 0.1875 0
0.09375 0.1875 0
0.09375 0.15625 0
0.125 0.15625 0
0.09375 0.1875 0
0.125 0.1875 0
0 0.1875 0
0.03125 0.1875 0
0 0.21875 0
0.03125 0.21875 0
0.03125 0.1875 0
0.0625 0.1875 0
0.03125 0.21875 0
0.0625 0.21875 0
0 0.21875 0
0.03125 0.21875 0
0 0.25 0
0.03125 0.25 0
0.03125 0.21875 0
0.0625 0.21875 0
0.03125 0.25 0
0.0625 0.25 0
0.0625 0.1875 0
0.09375 0.1875 0
0.0625 0.21875 0
0.09375 0.21875 0
0.09375 0.1875 0
0.125 0.1875 0
0.09375 0.21875 0
0.125 0.21875 0
0.0625 0.21875 0
0.09375 0.21875 0
0.0625 0.25 0
0.09375 0.25 0
0.09375 0.21875 0
0.125 0.21875 0
0.09375 0.25 0
0.125 0.25 0
0.125 0.125 0
0.15625 0.125 0
0.125 0.15625 0
0.15625 0.15625 0
0.15625 0.125 0
0.1875 0.125 0
0.15625 0.15625 0
0.1875 0.15625 0
0.125 0.15625 0
0.15625 0.15625 0
0.125 0.1875 0
0.15625 0.1875 0
0.15625 0.15625 0
0.1875 0.15625 0
0.15625 0.1875 0
0.1875 0.1875 0
0.1875 0.125 0
0.21875 0.125 0
0.1875 0.15625 0
0.21875 0.15625 0
0.21875 0.125 0
0.25 0.125 0
0.21875 0.15625 0
0.25 0.15625 0
0.1875 0.15625 0
0.21875 0.15625 0
0.1875 0.1875 0
0.21875 0.1875 0
0.21875 0.15625 0
0.25 0.15625 0
0.21875 0.1875 0
0.25 0.1875 0
0.125 0.1875 0
0.15625 0.1875 0
0.125 0.21875 0
0.15625 0.21875 0
0.15625 0.1875 0
0.1875 0.1875 0
0.15625 0.21875 0
0.1875 0.21875 0
0.125 0.21875 0
0.15625 0.21875 0
0.125 0.25 0
0.15625 0.25 0
0.15625 0.21875 0
0.1875 0.21875 0
0.15625 0.25 0
0.1875 0.25 0
0.1875 0.1875 0
0.21875 0.1875 0
0.1875 0.21875 0
0.21875 0.21875 0
0.21875 0.1875 0
0.25 0.1875 0
0.21875 0.21875 0
0.25 0.21875 0
0.1875 0.21875 0
0.21875 0.21875 0
0.1875 0.25 0
0.21875 0.25 0
0.21875 0.21875 0
0.25 0.21875 0
0.21875 0.25 0
0.25 0.25 0
0.25 0 0
0.28125 0 0
0.25 0.03125 0
0.28125 0.03125 0
0.28125 0 0
0.3125 0 0
0.28125 0.03125 0
0.3125 0.03125 0
0.25 0.03125 0
0.28125 0.03125 0
0.25 0.0625 0
0.28125 0.0625 0
0.28125 0.03125 0
0.3125 0.03125 0
0.28125 0.0625 0
0.3125 0.0625 0
0.3125 0 0
0.34375 0 0
0.3125 0.03125 0
0.34375 0.03125 0
0.34375 0 0
0.375 0 0
0.34375 0.03125 0
0.375 0.03125 0
0.3125 0.03125 0
0.34375 0.03125 0
0.3125 0.0625 0
0.34375 0.0625 0
0.34375 0.03125 0
0.375 0.03125 0
0.34375 0.0625 0
0.375 0.0625 0
0.25 0.0625 0
0.28125 0.0625 0
0.25 0.09375 0
0.28125 0.09375 0
0.28125 0.0625 0
0.3125 0.0625 0
0.28125 0.09375 0
0.3125 0.09375 0
0.25 0.09375 0
0.28125 0.09375 0
0.25 0.125 0
0.28125 0.125 0
0.28125 0.09375 0
0.3125 0.09375 0
0.28125 0.125 0
0.3125 0.125 0
0.3125 0.0625 0
0.34375 0.0625 0
0.3125 0.09375 0
0.34375 0.09375 0
0.34375 0.0625 0
0.375 0.0625 0
0.34375 0.09375 0
0.375 0.09375 0
0.3125 0.09375 0
0.34375 0.09375 0
0.3125 0.125 0
0.34375 0.125 0
0.34375 0.09375 0
0.375 0.09375 0
0.34375 0.125 0
0.375 0.125 0
0.375 0 0
0.40625 0 0
0.375 0.03125 0
0.40625 0.03125 0
0.40625 0 0
0.4375 0 0
0.40625 0.03125 0
0.4375 0.03125 0
0.375 0.03125 0
0.40625 0.03125 0
0.375 0.0625 0
0.40625 0.0625 0
0.40625 0.03125 0
0.4375 0.03125 0
0.40625 0.0625 0
0.4375 0.0625 0
0.4375 0 0
0.46875 0 0
0.4375 0.03125 0
0.46875 0.03125 0
0.46875 0 0
0.5 0 0
0.46875 0.03125 0
0.5 0.03125 0
0.4375 0.03125 0
0.46875 0.03125 0
0.4375 0.0625 0
0.46875 0.0625 0
0.46875 0.03125 0
0.5 0.03125 0
0.46875 0.0625 0
0.5 0.0625 0
0.375 0.0625 0
0.40625 0.0625 0
0.375 0.09375 0
0.40625 0.09375 0
0.40625 0.0625 0
0.4375 0.0625 0
0.40625 0.09375 0
0.4375 0.09375 0
0.375 0.09375 0
0.40625 0.09375 0
0.375 0.125 0
0.40625 0.125 0
0.40625 0.09375 0
0.4375 0.09375 0
0.40625 0.125 0
0.4375 0.125 0
0.4375 0.0625 0
0.46875 0.0625 0
0.4375 0.09375 0
0.46875 0.09375 0
0.46875 0.0625 0
0.5 0.0625 0
0.46875 0.09375 0
0.5 0.09375 0
0.4375 0.09375 0
0.46875 0.09375 0
0.4375 0.125 0
0.46875 0.125 0
0.46875 0.09375 0
0.5 0.09375 0
0.46875 0.125 0
0.5 0.125 0
0.25 0.125 0
0.28125 0.125 0
0.25 0.15625 0
0.28125 0.15625 0
0.28125 0.125 0
0.3125 0.125 0
0.28125 0.15625 0
0.3125 0.15625 0
0.25 0.15625 0
0.28125 0.15625 0
0.25 0.1875 0
0.28125 0.1875 0
0.28125 0.15625 0
0.3125 0.15625 0
0.28125 0.1875 0
0.3125 0.1875 0
0.3125 0.125 0
0.34375 0.125 0
0.3125 0.15625 0
0.34375 0.15625 0
0.34375 0.125 0
0.375 0.125 0
0.34375 0.15625 0
0.375 0.15625 0
0.3125 0.15625 0
0.34375 0.15625 0
0.3125 0.1875 0
0.34375 0.1875 0
0.34375 0.15625 0
0.375 0.15625 0
0.34375 0.1875 0
0.375 0.1875 0
0.25 0.1875 0
0.28125 0.1875 0
0.25 0.21875 0
0.28125 0.21875 0
0.28125 0.1875 0
0.3125 0.1875 0
0.28125 0.21875 0
0.3125 0.21875 0
0.25 0.21875 0
0.28125 0.21875 0
0.25 0.25 0
0.28125 0.25 0
0.28125 0.21875 0
0.3125 0.21875 0
0.28125 0.25 0
0.3125 0.25 0
0.3125 0.1875 0
0.34375 0.1875 0
0.3125 0.21875 0
0.34375 0.21875 0
0.34375 0.1875 0
0.375 0.1875 0
0.34375 0.21875 0
0.375 0.21875 0
0.3125 0.21875 0
0.34375 0.21875 0
0.3125 0.25 0
0.34375 0.25 0
0.34375 0.21875 0
0.375 0.21875 0
0.34375 0.25 0
0.375 0.25 0
0.375 0.125 0
0.40625 0.125 0
0.375 0.15625 0
0.40625 0.15625 0
0.40625 0.125 0
0.4375 0.125 0
0.40625 0.15625 0
0.4375 0.15625 0
0.375 0.15625 0
0.40625 0.15625 0
0.375 0.1875 0
0.40625 0.1875 0
0.40625 0.15625 0
0.4375 0.15625 0
0.40625 0.1875 0
0.4375 0.1875 0
0.4375 0.125 0
0.46875 0.125 0
0.4375 0.15625 0
0.46875 0.15625 0
0.46875 0.125 0
0.5 0.125 0
0.46875 0.15625 0
0.5 0.15625 0
0.4375 0.15625 0
0.46875 0.15625 0
0.4375 0.1875 0
0.46875 0.1875 0
0.46875 0.15625 0
0.5 0.15625 0
0.46875 0.1875 0
0.5 0.1875 0
0.375 0.1875 0
0.40625 0.1875 0
0.375 0.21875 0
0.40625 0.21875 0
0.40625 0.1875 0
0.4375 0.1875 0
0.40625 0.21875 0
0.4375 0.21875 0
0.375 0.21875 0
0.40625 0.21875 0
0.375 0.25 0
0.40625 0.25 0
0.40625 0.21875 0
0.4375 0.21875 0
0.40625 0.25 0
0.4375 0.25 0
0.4375 0.1875 0
0.46875 0.1875 0
0.4375 0.21875 0
0.46875 0.21875 0
0.46875 0.1875 0
0.5 0.1875 0
0.46875 0.21875 0
0.5 0.21875 0
0.4375 0.21875 0
0.46875 0.21875 0
0.4375 0.25 0
0.46875 0.25 0
0.46875 0.21875 0
0.5 0.21875 0
0.46875 0.25 0
0.5 0.25 0
0 0.25 0
0.03125 0.25 0
0 0.28125 0
0.03125 0.28125 0
0.03125 0.25 0
0.0625 0.25 0
0.03125 0.28125 0
0.0625 0.28125 0
0 0.28125 0
0.03125 0.28125 0
0 0.3125 0
0.03125 0.3125 0
0.03125 0.28125 0
0.0625 0.28125 0
0.03125 0.3125 0
0.0625 0.3125 0
0.0625 0.25 0
0.09375 0.25 0
0.0625 0.28125 0
0.09375 0.28125 0
0.09375 0.25 0
0.125 0.25 0
0.09375 0.28125 0
0.125 0.28125 0
0.0625 0.28125 0
0.09375 0.28125 0
0.0625 0.3125 0
0.09375 0.3125 0
0.09375 0.28125 0
0.125 0.28125 0
0.09375 0.3125 0
0.125 0.3125 0
0 0.3125 0
0.03125 0.3125 0
0 0.34375 0
0.03125 0.34375 0
0.03125 0.3125 0
0.0625 0.3125 0
0.03125 0.34375 0
0.0625 0.34375 0
0 0.34375 0
0.03125 0.34375 0
0 0.375 0
0.03125 0.375 0
0.03125 0.34375 0
0.0625 0.34375 0
0.03125 0.375 0
0.0625 0.375 0
0.0625 0.3125 0
0.09375 0.3125 0
0.0625 0.34375 0
0.09375 0.34375 0
0.09375 0.3125 0
0.125 0.3125 0
0.09375 0.34375 0
0.125 0.34375 0
0.0625 0.34375 0
0.09375 0.34375 0
0.0625 0.375 0
0.09375 0.375 0
0.09375 0.34375 0
0.125 0.34375 0
0.09375 0.375 0
0.125 0.375 0
0.125 0.25 0
0.15625 0.25 0
0.125 0.28125 0
0.15625 0.28125 0
0.15625 0.25 0
0.1875 0.25 0
0.15625 0.28125 0
0.1875 0.28125 0
0.125 0.28125 0
0.15625 0.28125 0
0.125 0.3125 0
0.15625 0.3125 0
0.15625 0.28125 0
0.1875 0.28125 0
0.15625 0.3125 0
0.1875 0.3125 0
0.1875 0.25 0
0.21875 0.25 0
0.1875 0.28125 0
0.21875 0.28125 0
0.21875 0.25 0
0.25 0.25 0
0.21875 0.28125 0
0.25 0.28125 0
0.1875 0.28125 0
0.21875 0.28125 0
0.1875 0.3125 0
0.21875 0.3125 0
0.21875 0.28125 0
0.25 0.28125 0
0.21875 0.3125 0
0.25 0.3125 0
0.125 0.3125 0
0.15625 0.3125 0
0.125 0.34375 0
0.15625 0.34375 0
0.15625 0.3125 0
0.1875 0.3125 0
0.15625 0.34375 0
0.1875 0.34375 0
0.125 0.34375 0
[...]
POINT_DATA 4096
SCALARS p double 1
LOOKUP_TABLE default
9.90258e-06 0.000106537 -8.22587e-05 1.75529e-05 0.000106537 0.000351279 1.75529e-05 0.000146672 -8.22587e-05 1.75529e-05 -0.000328942 -0.000112199 1.75529e-05 0.000146672 -0.000112199 1.87572e-05 0.000351279 0.00058201 0.000146672 0.000268945 0.00058201 0.000706904 0.000268945 0.000323181 0.000146672 0.000268945 1.87572e-05 0.000130518 0.000268945 0.000323181 0.000130518 0.000162947 -0.000328942 -0.000112199 -0.000567932 -0.000233855 -0.000112199 1.87572e-05 -0.000233855 -8.53139e-05 -0.000567932 -0.000233855 -0.000708519 -0.000287242 -0.000233855 -8.53139e-05 -0.000287242 -0.000105258 1.87572e-05 0.000130518 -8.53139e-05 3.07168e-05 0.000130518 0.000162947 3.07168e-05 5.41569e-05 -8.53139e-05 3.07168e-05 -0.000105258 3.04286e-05 3.07168e-05 5.41569e-05 3.04286e-05 5.89059e-05 0.000706904 0.000689118 0.000323181 0.000283491 0.000689118 0.000520582 0.000283491 0.000138509 0.000323181 0.000283491 0.000162947 0.000101562 0.000283491 0.000138509 0.000101562 -6.49404e-05 0.000520582 0.000205361 0.000138509 -0.000113366 0.000205361 -0.000247528 -0.000113366 -0.000468817 0.000138509 -0.000113366 -6.49404e-05 -0.000339502 -0.000113366 -0.000468817 -0.000339502 -0.000720581 0.000162947 0.000101562 5.41569e-05 -1.41463e-05 0.000101562 -6.49404e-05 -1.41463e-05 -0.000181462 5.41569e-05 -1.41463e-05 5.89059e-05 -9.43647e-06 -1.41463e-05 -0.000181462 -9.43647e-06 -0.000177946 -6.49404e-05 -0.000339502 -0.000181462 -0.000449477 -0.000339502 -0.000720581 -0.000449477 -0.000817154 -0.000181462 -0.000449477 -0.000177946 -0.000446266 -0.000449477 -0.000817154 -0.000446266 -0.000812836 -0.000708519 -0.000287242 -0.000710822 -0.000242739 -0.000287242 -0.000105258 -0.000242739 -2.15539e-05 -0.000710822 -0.000242739 -0.00055936 -8.24486e-05 -0.000242739 -2.15539e-05 -8.24486e-05 0.00018498 -0.000105258 3.04286e-05 -2.15539e-05 0.000134781 3.04286e-05 5.89059e-05 0.000134781 0.000173678 -2.15539e-05 0.000134781 0.00018498 0.000359373 0.000134781 0.000173678 0.000359373 0.000410573 -0.00055936 -8.24486e-05 -0.000247609 0.000204033 -8.24486e-05 0.00018498 0.000204033 0.000527219 -0.000247609 0.000204033 0.000228699 0.00062444 0.000204033 0.000527219 0.00062444 0.00101594 0.00018498 0.000359373 0.000527219 0.000715921 0.000359373 0.000410573 0.000715921 0.00077952 0.000527219 0.000715921 0.00101594 0.00121561 0.000715921 0.00077952 0.00121561 0.00129118 5.89059e-05 -9.43647e-06 0.000173678 0.000109278 -9.43647e-06 -0.000177946 0.000109278 -5.84331e-05 0.000173678 0.000109278 0.000410573 0.00035112 0.000109278 -5.84331e-05 0.00035112 0.000183763 -0.000177946 -0.000446266 -5.84331e-05 -0.000327318 -0.000446266 -0.000812836 -0.000327318 -0.000695041 -5.84331e-05 -0.000327318 0.000183763 -8.81456e-05 -0.000327318 -0.000695041 -8.81456e-05 -0.000461502 0.000410573 0.00035112 0.00077952 0.000724333 0.00035112 0.000183763 0.000724333 0.000555676 0.00077952 0.000724333 0.00129118 0.00123867 0.000724333 0.000555676 0.00123867 0.00106624 0.000183763 -8.81456e-05 0.000555676 0.000277678 -8.81456e-05 -0.000461502 0.000277678 -0.000105932 0.000555676 0.000277678 0.00106624 0.000778405 0.000277678 -0.000105932 0.000778405 0.000379419 -0.000247528 -0.000827562 -0.000468817 -0.000922043 -0.000827562 -0.00152392 -0.000922043 -0.00146596 -0.000468817 -0.000922043 -0.000720581 -0.0012037 -0.000922043 -0.00146596 -0.0012037 -0.00178256 -0.00152392 -0.0023256 -0.00146596 -0.00209259 -0.0023256 -0.00322108 -0.00209259 -0.00279314 -0.00146596 -0.00209259 -0.00178256 -0.00244941 -0.00209259 -0.00279314 -0.00244941 -0.00319531 -0.000720581 -0.0012037 -0.000817154 -0.00128112 -0.0012037 -0.00178256 -0.00128112 -0.00183626 -0.000817154 -0.00128112 -0.000812836 -0.0012745 -0.00128112 -0.00183626 -0.0012745 -0.0018266 -0.00178256 -0.00244941 -0.00183626 -0.00247585 -0.00244941 -0.00319531 -0.00247585 -0.00319184 -0.00183626 -0.00247585 -0.0018266 -0.002463 -0.00247585 -0.00319184 -0.002463 -0.0031761 -0.00322108 -0.00419797 -0.00279314 -0.00355787 -0.00419797 -0.00524278 -0.00355787 -0.00437606 -0.00279314 -0.00355787 -0.00319531 -0.00401004 -0.00355787 -0.00437606 -0.00401004 -0.00488223 -0.00524278 -0.00634068 -0.00437606 -0.00523589 -0.00634068 -0.00747539 -0.00523589 -0.00612441 -0.00437606 -0.00523589 -0.00488223 -0.00579923 -0.00523589 -0.00612441 -0.00579923 -0.00674713 -0.00319531 -0.00401004 -0.00319184 -0.00397472 -0.00401004 -0.00488223 -0.00397472 -0.00481377 -0.00319184 -0.00397472 -0.0031761 -0.00395689 -0.00397472 -0.00481377 -0.00395689 -0.00479494 -0.00488223 -0.00579923 -0.00481377 -0.00569692 -0.00579923 -0.00674713 -0.00569692 -0.00661081 -0.00481377 -0.00569692 -0.00479494 -0.00567837 -0.00569692 -0.00661081 -0.00567837 -0.00659397 -0.000812836 -0.0012745 -0.000695041 -0.00115831 -0.0012745 -0.0018266 -0.00115831 -0.00171266 -0.000695041 -0.00115831 -0.000461502 -0.000932728 -0.00115831 -0.00171266 -0.000932728 -0.00149741 -0.0018266 -0.002463 -0.00171266 -0.0023523 -0.002463 -0.0031761 -0.0023523 -0.00307005 -0.00171266 -0.0023523 -0.00149741 -0.00214992 -0.0023523 -0.00307005 -0.00214992 -0.00288337 -0.000461502 -0.000932728 -0.000105932 -0.000591333 -0.000932728 -0.00149741 -0.000591333 -0.00117405 -0.000105932 -0.000591333 0.000379419 -0.00012667 -0.000591333 -0.00117405 -0.00012667 -0.000735319 -0.00149741 -0.00214992 -0.00117405 -0.00184857 -0.00214992 -0.00288337 -0.00184857 -0.00260818 -0.00117405 -0.00184857 -0.000735319 -0.00144113 -0.00184857 -0.00260818 -0.00144113 -0.00223752 -0.0031761 -0.00395689 -0.00307005 -0.00385722 -0.00395689 -0.00479494 -0.00385722 -0.00470368 -0.00307005 -0.00385722 -0.00288337 -0.00368927 -0.00385722 -0.00470368 -0.00368927 -0.00455768 -0.00479494 -0.00567837 -0.00470368 -0.00559773 -0.00567837 -0.00659397 -0.00559773 -0.00652619 -0.00470368 -0.00559773 -0.00455768 -0.005477 -0.00559773 -0.00652619 -0.005477 -0.00643393 -0.00288337 -0.00368927 -0.00260818 -0.0034446 -0.00368927 -0.00455768 -0.0034446 -0.00434797 -0.00260818 -0.0034446 -0.00223752 -0.00311639 -0.0034446 -0.00434797 -0.00311639 -0.00406793 -0.00455768 -0.005477 -0.00434797 -0.00530662 -0.005477 -0.00643393 -0.00530662 -0.00630712 -0.00434797 -0.00530662 -0.00406793 -0.00508038 -0.00530662 -0.00630712 -0.00508038 -0.0061401 0.000228699 0.00062444 0.000875025 0.00118638 0.00062444 0.00101594 0.00118638 0.00166148 0.000875025 0.00118638 0.00169957 0.00189877 0.00118638 0.00166148 0.00189877 0.00247534 0.00101594 0.00121561 0.00166148 0.00186957 0.00121561 0.00129118 0.00186957 0.00195682 0.00166148 0.00186957 0.00247534 0.00269011 0.00186957 0.00195682 0.00269011 0.00278912 0.00169957 0.00189877 0.0027139 0.00277274 0.00189877 0.00247534 0.00277274 0.00347114 0.0027139 0.00277274 0.00393321 0.00382211 0.00277274 0.00347114 0.00382211 0.00466519 0.00247534 0.00269011 0.00347114 0.00369153 0.00269011 0.00278912 0.00369153 0.00380285 0.00347114 0.00369153 0.00466519 0.00489068 0.00369153 0.00380285 0.00489068 0.00501531 0.00129118 0.00123867 0.00195682 0.00190512 0.00123867 0.00106624 0.00190512 0.00172603 0.00195682 0.00190512 0.00278912 0.00273638 0.00190512 0.00172603 0.00273638 0.00254759 0.00106624 0.000778405 0.00172603 0.00142425 0.000778405 0.000379419 0.00142425 0.00100452 0.00172603 0.00142425 0.00254759 0.00222758 0.00142425 0.00100452 0.00222758 0.00178169 0.00278912 0.00273638 0.00380285 0.00374728 0.00273638 0.00254759 0.00374728 0.00354579 0.00380285 0.00374728 0.00501531 0.00495534 0.00374728 0.00354579 0.00495534 0.00473812 0.00254759 0.00222758 0.00354579 0.00320328 0.00222758 0.00178169 0.00320328 0.00272581 0.00354579 0.00320328 0.00473812 0.00436888 0.00320328 0.00272581 0.00436888 0.00385455 0.00393321 0.00382211 0.0053765 0.00506385 0.00382211 0.00466519 0.00506385 0.00607729 0.0053765 0.00506385 0.00706675 0.00651845 0.00506385 0.00607729 0.00651845 0.00773127 0.00466519 0.00489068 0.00607729 0.00630776 0.00489068 0.00501531 0.00630776 0.00644711 0.00607729 0.00630776 0.00773127 0.00796693 0.00630776 0.00644711 0.00796693 0.00812266 0.00706675 0.00651845 0.00903146 0.00821067 0.00651845 0.00773127 0.00821067 0.00965591 0.00903146 0.00821067 0.0113035 0.0101705 0.00821067 0.00965591 0.0101705 0.0118861 0.00773127 0.00796693 0.00965591 0.00989725 0.00796693 0.00812266 0.00989725 0.0100711 0.00965591 0.00989725 0.0118861 0.0121338 0.00989725 0.0100711 0.0121338 0.0123275 0.00501531 0.00495534 0.00644711 0.00638121 0.00495534 0.00473812 0.00638121 0.00614522 0.00644711 0.00638121 0.00812266 0.00804923 0.00638121 0.00614522 0.00804923 0.00779128 0.00473812 0.00436888 0.00614522 0.00574498 0.00436888 0.00385455 0.00574498 0.00518858 0.00614522 0.00574498 0.00779128 0.00735563 0.00574498 0.00518858 0.00735563 0.00675186 0.00812266 0.00804923 0.0100711 0.00998816 0.00804923 0.00779128 0.00998816 0.00970454 0.0100711 0.00998816 0.0123275 0.012232 0.00998816 0.00970454 0.012232 0.0119179 0.00779128 0.00735563 0.00970454 0.00922859 0.00735563 0.00675186 0.00922859 0.00857188 0.00970454 0.00922859 0.0119179 0.0113958 0.00922859 0.00857188 0.0113958 0.0106798 0.000379419 -0.00012667 0.00100452 0.000471136 -0.00012667 -0.000735319 0.000471136 -0.00017136 0.00100452 0.000471136 0.00178169 0.00121438 0.000471136 -0.00017136 0.00121438 0.000530203 -0.000735319 -0.00144113 -0.00017136 -0.000917692 -0.00144113 -0.00223752 -0.000917692 -0.00176143 -0.00017136 -0.000917692 0.000530203 -0.000265728 -0.000917692 -0.00176143 -0.000265728 -0.00116721 0.00178169 0.00121438 0.00272581 0.00211804 0.00121438 0.000530203 0.00211804 0.00138455 0.00272581 0.00211804 0.00385455 0.00320005 0.00211804 0.00138455 0.00320005 0.00240988 0.000530203 -0.000265728 0.00138455 0.000530193 -0.000265728 -0.00116721 0.000530193 -0.000439149 0.00138455 0.000530193 0.00240988 0.00148865 0.000530193 -0.000439149 0.00148865 0.000441822 -0.00223752 -0.00311639 -0.00176143 -0.00269464 -0.00311639 -0.00406793 -0.00269464 -0.00370759 -0.00176143 -0.00269464 -0.00116721 -0.00216654 -0.00269464 -0.00370759 -0.00216654 -0.00325413 -0.00406793 -0.00508038 -0.00370759 -0.00478849 -0.00508038 -0.0061401 -0.00478849 -0.00592345 -0.00370759 -0.00478849 -0.00325413 -0.00441828 -0.00478849 -0.00592345 -0.00441828 -0.00564484 -0.00116721 -0.00216654 -0.000439149 -0.00151608 -0.00216654 -0.00325413 -0.00151608 -0.00269136 -0.000439149 -0.00151608 0.000441822 -0.000723722 -0.00151608 -0.00269136 -0.000723722 -0.00199929 -0.00325413 -0.00441828 -0.00269136 -0.00395348 -0.00441828 -0.00564484 -0.00395348 -0.00528823 -0.00269136 -0.00395348 -0.00199929 -0.00337383 -0.00395348 -0.00528823 -0.00337383 -0.00483334 0.00385455 0.00320005 0.00518858 0.00448125 0.00320005 0.00240988 0.00448125 0.00362745 0.00518858 0.00448125 0.00675186 0.00598574 0.00448125 0.00362745 0.00598574 0.00506171 0.00240988 0.00148865 0.00362745 0.00263145 0.00148865 0.000441822 0.00263145 0.00149816 0.00362745 0.00263145 0.00506171 0.00398365 0.00263145 0.00149816 0.00398365 0.00275576 0.00675186 0.00598574 0.00857188 0.00774097 0.00598574 0.00506171 0.00774097 0.0067404 0.00857188 0.00774097 0.0106798 0.00977777 0.00774097 0.0067404 0.00977777 0.00869435 0.00506171 0.00398365 0.0067404 0.00557359 0.00398365 0.00275576 0.00557359 0.00424391 0.0067404 0.00557359 0.00869435 0.00743261 0.00557359 0.00424391 0.00743261 0.00599495 0.000441822 -0.000723722 0.00149816 0.000233713 -0.000723722 -0.00199929 0.000233713 -0.001154 0.00149816 0.000233713 0.00275576 0.00138318 0.000233713 -0.001154 0.00138318 -0.000127313 -0.00199929 -0.00337383 -0.001154 -0.00265472 -0.00337383 -0.00483334 -0.00265472 -0.00425512 -0.001154 -0.00265472 -0.000127313 -0.00176672 -0.00265472 -0.00425512 -0.00176672 -0.00352297 0.00275576 0.00138318 0.00424391 0.00275529 0.00138318 -0.000127313 0.00275529 0.00111304 0.00424391 0.00275529 0.00599495 0.004384 0.00275529 0.00111304 0.004384 0.0026032 -0.000127313 -0.00176672 0.00111304 -0.00067561 -0.00176672 -0.00352297 -0.00067561 -0.00260062 0.00111304 -0.00067561 0.0026032 0.000657481 -0.00067561 -0.00260062 0.000657481 -0.00144594 -0.00747539 -0.00862925 -0.00612441 -0.00702759 -0.00862925 -0.00978332 -0.00702759 -0.00793038 -0.00612441 -0.00702759 -0.00674713 -0.00771085 -0.00702759 -0.00793038 -0.00771085 -0.00867418 -0.00978332 -0.0109176 -0.00793038 -0.00881696 -0.0109176 -0.0120112 -0.00881696 -0.00967084 -0.00793038 -0.00881696 -0.00867418 -0.00962009 -0.00881696 -0.00967084 -0.00962009 -0.0105309 -0.00674713 -0.00771085 -0.00661081 -0.00754083 -0.00771085 -0.00867418 -0.00754083 -0.00847126 -0.00661081 -0.00754083 -0.00659397 -0.00752714 -0.00754083 -0.00847126 -0.00752714 -0.00846214 -0.00867418 -0.00962009 -0.00847126 -0.00938556 -0.00962009 -0.0105309 -0.00938556 -0.0102665 -0.00847126 -0.00938556 -0.00846214 -0.00938219 -0.00938556 -0.0102665 -0.00938219 -0.0102698 -0.0120112 -0.0130426 -0.00967084 -0.0104752 -0.0130426 -0.0139901 -0.0104752 -0.0112131 -0.00967084 -0.0104752 -0.0105309 -0.0113886 -0.0104752 -0.0112131 -0.0113886 -0.0121754 -0.0139901 -0.014832 -0.0112131 -0.0118683 -0.014832 -0.0155474 -0.0118683 -0.0124253 -0.0112131 -0.0118683 -0.0121754 -0.0128741 -0.0118683 -0.0124253 -0.0128741 -0.013469 -0.0105309 -0.0113886 -0.0102665 -0.0110965 -0.0113886 -0.0121754 -0.0110965 -0.0118585 -0.0102665 -0.0110965 -0.0102698 -0.0111073 -0.0110965 -0.0118585 -0.0111073 -0.0118769 -0.0121754 -0.0128741 -0.0118585 -0.0125357 -0.0128741 -0.013469 -0.0125357 -0.0131134 -0.0118585 -0.0125357 -0.0118769 -0.0125619 -0.0125357 -0.0131134 -0.0125619 -0.013147 -0.00659397 -0.00752714 -0.00652619 -0.00747438 -0.00752714 -0.00846214 -0.00747438 -0.00842633 -0.00652619 -0.00747438 -0.00643393 -0.00741356 -0.00747438 -0.00842633 -0.00741356 -0.00839947 -0.00846214 -0.00938219 -0.00842633 -0.00936492 -0.00938219 -0.0102698 -0.00936492 -0.0102722 -0.00842633 -0.00936492 -0.00839947 -0.00937391 -0.00936492 -0.0102722 -0.00937391 -0.010318 -0.00643393 -0.00741356 -0.00630712 -0.0073342 -0.00741356 -0.00839947 -0.0073342 -0.00837082 -0.00630712 -0.0073342 -0.0061401 -0.00723132 -0.0073342 -0.00837082 -0.00723132 -0.00833622 -0.00839947 -0.00937391 -0.00837082 -0.00939825 -0.00937391 -0.010318 -0.00939825 -0.0103965 -0.00837082 -0.00939825 -0.00833622 -0.00943488 -0.00939825 -0.0103965 -0.00943488 -0.0105057 -0.0102698 -0.0111073 -0.0102722 -0.0111296 -0.0111073 -0.0118769 -0.0111296 -0.0119189 -0.0102722 -0.0111296 -0.010318 -0.0112123 -0.0111296 -0.0119189 -0.0112123 -0.0120371 -0.0118769 -0.0125619 -0.0119189 -0.0126224 -0.0125619 -0.013147 -0.0126224 -0.013224 -0.0119189 -0.0126224 -0.0120371 -0.0127734 -0.0126224 -0.013224 -0.0127734 -0.0134036 -0.010318 -0.0112123 -0.0103965 -0.0113445 -0.0112123 -0.0120371 -0.0113445 -0.0122209 -0.0103965 -0.0113445 -0.0105057 -0.0115259 -0.0113445 -0.0122209 -0.0115259 -0.0124716 -0.0120371 -0.0127734 -0.0122209 -0.0130046 -0.0127734 -0.0134036 -0.0130046 -0.0136762 -0.0122209 -0.0130046 -0.0124716 -0.0133192 -0.0130046 -0.0136762 -0.0133192 -0.0140466 -0.0155474 -0.0161166 -0.0124253 -0.0128703 -0.0161166 -0.016522 -0.0128703 -0.0131933 -0.0124253 -0.0128703 -0.013469 -0.0139466 -0.0128703 -0.0131933 -0.0139466 -0.0142977 -0.016522 -0.0167527 -0.0131933 -0.0133859 -0.0167527 -0.0167975 -0.0133859 -0.013464 -0.0131933 -0.0133859 -0.0142977 -0.0145162 -0.0133859 -0.013464 -0.0145162 -0.0146162 -0.013469 -0.0139466 -0.0131134 -0.0135789 -0.0139466 -0.0142977 -0.0135789 -0.0139239 -0.0131134 -0.0135789 -0.013147 -0.0136194 -0.0135789 -0.0139239 -0.0136194 -0.0139702 -0.0142977 -0.0145162 -0.0139239 -0.0141425 -0.0145162 -0.0146162 -0.0141425 -0.0142484 -0.0139239 -0.0141425 -0.0139702 -0.0141927 -0.0141425 -0.0142484 -0.0141927 -0.0142985 -0.0167975 -0.0167072 -0.013464 -0.0133701 -0.0167072 -0.0164682 -0.0133701 -0.0135141 -0.013464 -0.0133701 -0.0146162 -0.0145507 -0.0133701 -0.0135141 -0.0145507 -0.0146872 -0.0164682 -0.0154313 -0.0135141 -0.0120556 -0.0154313 -0.0168109 -0.0120556 -0.0152291 -0.0135141 -0.0120556 -0.0146872 -0.0132415 -0.0120556 -0.0152291 -0.0132415 -0.0157458 -0.0146162 -0.0145507 -0.0142484 -0.0141873 -0.0145507 -0.0146872 -0.0141873 -0.0143292 -0.0142484 -0.0141873 -0.0142985 -0.0142308 -0.0141873 -0.0143292 -0.0142308 -0.0143468 -0.0146872 -0.0132415 -0.0143292 -0.012845 -0.0132415 -0.0157458 -0.012845 -0.0154944 -0.0143292 -0.012845 -0.0143468 -0.0128318 -0.012845 -0.0154944 -0.0128318 -0.0153142 -0.013147 -0.0136194 -0.013224 -0.0137099 -0.0136194 -0.0139702 -0.0137099 -0.0140703 -0.013224 -0.0137099 -0.0134036 -0.0139125 -0.0137099 -0.0140703 -0.0139125 -0.0142888 -0.0139702 -0.0141927 -0.0140703 -0.014297 -0.0141927 -0.0142985 -0.014297 -0.0143999 -0.0140703 -0.014297 -0.0142888 -0.0145228 -0.014297 -0.0143999 -0.0145228 -0.0146232 -0.0134036 -0.0139125 -0.0136762 -0.0142184 -0.0139125 -0.0142888 -0.0142184 -0.014618 -0.0136762 -0.0142184 -0.0140466 -0.014634 -0.0142184 -0.014618 -0.014634 -0.0150659 -0.0142888 -0.0145228 -0.014618 -0.0148638 -0.0145228 -0.0146232 -0.0148638 -0.0149639 -0.014618 -0.0148638 -0.0150659 -0.0153296 -0.0148638 -0.0149639 -0.0153296 -0.0154325 -0.0142985 -0.0142308 -0.0143999 -0.0143193 -0.0142308 -0.0143468 -0.0143193 -0.0144105 -0.0143999 -0.0143193 -0.0146232 -0.0145283 -0.0143193 -0.0144105 -0.0145283 -0.0145964 -0.0143468 -0.0128318 -0.0144105 -0.0128516 -0.0128318 -0.0153142 -0.0128516 -0.0152985 -0.0144105 -0.0128516 -0.0145964 -0.0129895 -0.0128516 -0.0152985 -0.0129895 -0.0154179 -0.0146232 -0.0145283 -0.0149639 -0.0148551 -0.0145283 -0.0145964 -0.0148551 -0.014903 -0.0149639 -0.0148551 -0.0154325 -0.0153104 -0.0148551 -0.014903 -0.0153104 -0.0153402 -0.0145964 -0.0129895 -0.014903 -0.0132382 -0.0129895 -0.0154179 -0.0132382 -0.0156804 -0.014903 -0.0132382 -0.0153402 -0.0136048 -0.0132382 -0.0156804 -0.0136048 -0.0160842 -0.0061401 -0.00723132 -0.00592345 -0.00709612 -0.00723132 -0.00833622 -0.00709612 -0.00828777 -0.00592345 -0.00709612 -0.00564484 -0.00691697 -0.00709612 -0.00828777 -0.00691697 -0.00821493 -0.00833622 -0.00943488 -0.00828777 -0.00947715 -0.00943488 -0.0105057 -0.00947715 -0.0106408 -0.00828777 -0.00947715 -0.00821493 -0.00951601 -0.00947715 -0.0106408 -0.00951601 -0.0107946 -0.00564484 -0.00691697 -0.00528823 -0.00667841 -0.00691697 -0.00821493 -0.00667841 -0.00810337 -0.00528823 -0.00667841 -0.00483334 -0.00636055 -0.00667841 -0.00810337 -0.00636055 -0.00793416 -0.00821493 -0.00951601 -0.00810337 -0.00953887 -0.00951601 -0.0107946 -0.00953887 -0.0109568 -0.00810337 -0.00953887 -0.00793416 -0.00952851 -0.00953887 -0.0109568 -0.00952851 -0.011113 -0.0105057 -0.0115259 -0.0106408 -0.0117533 -0.0115259 -0.0124716 -0.0117533 -0.0127882 -0.0106408 -0.0117533 -0.0107946 -0.0120223 -0.0117533 -0.0127882 -0.0120223 -0.0131691 -0.0124716 -0.0133192 -0.0127882 -0.0137185 -0.0133192 -0.0140466 -0.0137185 -0.0145186 -0.0127882 -0.0137185 -0.0131691 -0.014204 -0.0137185 -0.0145186 -0.014204 -0.0150967 -0.0107946 -0.0120223 -0.0109568 -0.0123257 -0.0120223 -0.0131691 -0.0123257 -0.0136108 -0.0109568 -0.0123257 -0.011113 -0.0126523 -0.0123257 -0.0136108 -0.0126523 -0.0141066 -0.0131691 -0.014204 -0.0136108 -0.0147761 -0.014204 -0.0150967 -0.0147761 -0.0157856 -0.0136108 -0.0147761 -0.0141066 -0.0154334 -0.0147761 -0.0157856 -0.0154334 -0.0165893 -0.00483334 -0.00636055 -0.00425512 -0.00593828 -0.00636055 -0.00793416 -0.00593828 -0.00768274 -0.00425512 -0.00593828 -0.00352297 -0.00538023 -0.00593828 -0.00768274 -0.00538023 -0.00731755 -0.00793416 -0.00952851 -0.00768274 -0.00946176 -0.00952851 -0.011113 -0.00946176 -0.0112424 -0.00768274 -0.00946176 -0.00731755 -0.00930788 -0.00946176 -0.0112424 -0.00930788 -0.0113165 -0.00352297 -0.00538023 -0.00260062 -0.00464811 -0.00538023 -0.00731755 -0.00464811 -0.00679886 -0.00260062 -0.00464811 -0.00144594 -0.0036963 -0.00464811 -0.00679886 -0.0036963 -0.00607764 -0.00731755 -0.00930788 -0.00679886 -0.00902665 -0.00930788 -0.0113165 -0.00902665 -0.0112962 -0.00679886 -0.00902665 -0.00607764 -0.00856645 -0.00902665 -0.0112962 -0.00856645 -0.0111289 -0.011113 -0.0126523 -0.0112424 -0.0129853 -0.0126523 -0.01