# vtk DataFile Version 3.0
#This file was generated by the deal.II library on 2026/1/5 at 14:19:38
ASCII
DATASET UNSTRUCTURED_GRID

POINTS 4096 double
0 0 0
0.03125 0 0
0 0.03125 0
0.03125 0.03125 0
0.03125 0 0
0.0625 0 0
0.03125 0.03125 0
0.0625 0.03125 0
0 0.03125 0
0.03125 0.03125 0
0 0.0625 0
0.03125 0.0625 0
0.03125 0.03125 0
0.0625 0.03125 0
0.03125 0.0625 0
0.0625 0.0625 0
0.0625 0 0
0.09375 0 0
0.0625 0.03125 0
0.09375 0.03125 0
0.09375 0 0
0.125 0 0
0.09375 0.03125 0
0.125 0.03125 0
0.0625 0.03125 0
0.09375 0.03125 0
0.0625 0.0625 0
0.09375 0.0625 0
0.09375 0.03125 0
0.125 0.03125 0
0.09375 0.0625 0
0.125 0.0625 0
0 0.0625 0
0.03125 0.0625 0
0 0.09375 0
0.03125 0.09375 0
0.03125 0.0625 0
0.0625 0.0625 0
0.03125 0.09375 0
0.0625 0.09375 0
0 0.09375 0
0.03125 0.09375 0
0 0.125 0
0.03125 0.125 0
0.03125 0.09375 0
0.0625 0.09375 0
0.03125 0.125 0
0.0625 0.125 0
0.0625 0.0625 0
0.09375 0.0625 0
0.0625 0.09375 0
0.09375 0.09375 0
0.09375 0.0625 0
0.125 0.0625 0
0.09375 0.09375 0
0.125 0.09375 0
0.0625 0.09375 0
0.09375 0.09375 0
0.0625 0.125 0
0.09375 0.125 0
0.09375 0.09375 0
0.125 0.09375 0
0.09375 0.125 0
0.125 0.125 0
0.125 0 0
0.15625 0 0
0.125 0.03125 0
0.15625 0.03125 0
0.15625 0 0
0.1875 0 0
0.15625 0.03125 0
0.1875 0.03125 0
0.125 0.03125 0
0.15625 0.03125 0
0.125 0.0625 0
0.15625 0.0625 0
0.15625 0.03125 0
0.1875 0.03125 0
0.15625 0.0625 0
0.1875 0.0625 0
0.1875 0 0
0.21875 0 0
0.1875 0.03125 0
0.21875 0.03125 0
0.21875 0 0
0.25 0 0
0.21875 0.03125 0
0.25 0.03125 0
0.1875 0.03125 0
0.21875 0.03125 0
0.1875 0.0625 0
0.21875 0.0625 0
0.21875 0.03125 0
0.25 0.03125 0
0.21875 0.0625 0
0.25 0.0625 0
0.125 0.0625 0
0.15625 0.0625 0
0.125 0.09375 0
0.15625 0.09375 0
0.15625 0.0625 0
0.1875 0.0625 0
0.15625 0.09375 0
0.1875 0.09375 0
0.125 0.09375 0
0.15625 0.09375 0
0.125 0.125 0
0.15625 0.125 0
0.15625 0.09375 0
0.1875 0.09375 0
0.15625 0.125 0
0.1875 0.125 0
0.1875 0.0625 0
0.21875 0.0625 0
0.1875 0.09375 0
0.21875 0.09375 0
0.21875 0.0625 0
0.25 0.0625 0
0.21875 0.09375 0
0.25 0.09375 0
0.1875 0.09375 0
0.21875 0.09375 0
0.1875 0.125 0
0.21875 0.125 0
0.21875 0.09375 0
0.25 0.09375 0
0.21875 0.125 0
0.25 0.125 0
0 0.125 0
0.03125 0.125 0
0 0.15625 0
0.03125 0.15625 0
0.03125 0.125 0
0.0625 0.125 0
0.03125 0.15625 0
0.0625 0.15625 0
0 0.15625 0
0.03125 0.15625 0
0 0.1875 0
0.03125 0.1875 0
0.03125 0.15625 0
0.0625 0.15625 0
0.03125 0.1875 0
0.0625 0.1875 0
0.0625 0.125 0
0.09375 0.125 0
0.0625 0.15625 0
0.09375 0.15625 0
0.09375 0.125 0
0.125 0.125 0
0.09375 0.15625 0
0.125 0.15625 0
0.0625 0.15625 0
0.09375 0.15625 0
0.0625 0.1875 0
0.09375 0.1875 0
0.09375 0.15625 0
0.125 0.15625 0
0.09375 0.1875 0
0.125 0.1875 0
0 0.1875 0
0.03125 0.1875 0
0 0.21875 0
0.03125 0.21875 0
0.03125 0.1875 0
0.0625 0.1875 0
0.03125 0.21875 0
0.0625 0.21875 0
0 0.21875 0
0.03125 0.21875 0
0 0.25 0
0.03125 0.25 0
0.03125 0.21875 0
0.0625 0.21875 0
0.03125 0.25 0
0.0625 0.25 0
0.0625 0.1875 0
0.09375 0.1875 0
0.0625 0.21875 0
0.09375 0.21875 0
0.09375 0.1875 0
0.125 0.1875 0
0.09375 0.21875 0
0.125 0.21875 0
0.0625 0.21875 0
0.09375 0.21875 0
0.0625 0.25 0
0.09375 0.25 0
0.09375 0.21875 0
0.125 0.21875 0
0.09375 0.25 0
0.125 0.25 0
0.125 0.125 0
0.15625 0.125 0
0.125 0.15625 0
0.15625 0.15625 0
0.15625 0.125 0
0.1875 0.125 0
0.15625 0.15625 0
0.1875 0.15625 0
0.125 0.15625 0
0.15625 0.15625 0
0.125 0.1875 0
0.15625 0.1875 0
0.15625 0.15625 0
0.1875 0.15625 0
0.15625 0.1875 0
0.1875 0.1875 0
0.1875 0.125 0
0.21875 0.125 0
0.1875 0.15625 0
0.21875 0.15625 0
0.21875 0.125 0
0.25 0.125 0
0.21875 0.15625 0
0.25 0.15625 0
0.1875 0.15625 0
0.21875 0.15625 0
0.1875 0.1875 0
0.21875 0.1875 0
0.21875 0.15625 0
0.25 0.15625 0
0.21875 0.1875 0
0.25 0.1875 0
0.125 0.1875 0
0.15625 0.1875 0
0.125 0.21875 0
0.15625 0.21875 0
0.15625 0.1875 0
0.1875 0.1875 0
0.15625 0.21875 0
0.1875 0.21875 0
0.125 0.21875 0
0.15625 0.21875 0
0.125 0.25 0
0.15625 0.25 0
0.15625 0.21875 0
0.1875 0.21875 0
0.15625 0.25 0
0.1875 0.25 0
0.1875 0.1875 0
0.21875 0.1875 0
0.1875 0.21875 0
0.21875 0.21875 0
0.21875 0.1875 0
0.25 0.1875 0
0.21875 0.21875 0
0.25 0.21875 0
0.1875 0.21875 0
0.21875 0.21875 0
0.1875 0.25 0
0.21875 0.25 0
0.21875 0.21875 0
0.25 0.21875 0
0.21875 0.25 0
0.25 0.25 0
0.25 0 0
0.28125 0 0
0.25 0.03125 0
0.28125 0.03125 0
0.28125 0 0
0.3125 0 0
0.28125 0.03125 0
0.3125 0.03125 0
0.25 0.03125 0
0.28125 0.03125 0
0.25 0.0625 0
0.28125 0.0625 0
0.28125 0.03125 0
0.3125 0.03125 0
0.28125 0.0625 0
0.3125 0.0625 0
0.3125 0 0
0.34375 0 0
0.3125 0.03125 0
0.34375 0.03125 0
0.34375 0 0
0.375 0 0
0.34375 0.03125 0
0.375 0.03125 0
0.3125 0.03125 0
0.34375 0.03125 0
0.3125 0.0625 0
0.34375 0.0625 0
0.34375 0.03125 0
0.375 0.03125 0
0.34375 0.0625 0
0.375 0.0625 0
0.25 0.0625 0
0.28125 0.0625 0
0.25 0.09375 0
0.28125 0.09375 0
0.28125 0.0625 0
0.3125 0.0625 0
0.28125 0.09375 0
0.3125 0.09375 0
0.25 0.09375 0
0.28125 0.09375 0
0.25 0.125 0
0.28125 0.125 0
0.28125 0.09375 0
0.3125 0.09375 0
0.28125 0.125 0
0.3125 0.125 0
0.3125 0.0625 0
0.34375 0.0625 0
0.3125 0.09375 0
0.34375 0.09375 0
0.34375 0.0625 0
0.375 0.0625 0
0.34375 0.09375 0
0.375 0.09375 0
0.3125 0.09375 0
0.34375 0.09375 0
0.3125 0.125 0
0.34375 0.125 0
0.34375 0.09375 0
0.375 0.09375 0
0.34375 0.125 0
0.375 0.125 0
0.375 0 0
0.40625 0 0
0.375 0.03125 0
0.40625 0.03125 0
0.40625 0 0
0.4375 0 0
0.40625 0.03125 0
0.4375 0.03125 0
0.375 0.03125 0
0.40625 0.03125 0
0.375 0.0625 0
0.40625 0.0625 0
0.40625 0.03125 0
0.4375 0.03125 0
0.40625 0.0625 0
0.4375 0.0625 0
0.4375 0 0
0.46875 0 0
0.4375 0.03125 0
0.46875 0.03125 0
0.46875 0 0
0.5 0 0
0.46875 0.03125 0
0.5 0.03125 0
0.4375 0.03125 0
0.46875 0.03125 0
0.4375 0.0625 0
0.46875 0.0625 0
0.46875 0.03125 0
0.5 0.03125 0
0.46875 0.0625 0
0.5 0.0625 0
0.375 0.0625 0
0.40625 0.0625 0
0.375 0.09375 0
0.40625 0.09375 0
0.40625 0.0625 0
0.4375 0.0625 0
0.40625 0.09375 0
0.4375 0.09375 0
0.375 0.09375 0
0.40625 0.09375 0
0.375 0.125 0
0.40625 0.125 0
0.40625 0.09375 0
0.4375 0.09375 0
0.40625 0.125 0
0.4375 0.125 0
0.4375 0.0625 0
0.46875 0.0625 0
0.4375 0.09375 0
0.46875 0.09375 0
0.46875 0.0625 0
0.5 0.0625 0
0.46875 0.09375 0
0.5 0.09375 0
0.4375 0.09375 0
0.46875 0.09375 0
0.4375 0.125 0
0.46875 0.125 0
0.46875 0.09375 0
0.5 0.09375 0
0.46875 0.125 0
0.5 0.125 0
0.25 0.125 0
0.28125 0.125 0
0.25 0.15625 0
0.28125 0.15625 0
0.28125 0.125 0
0.3125 0.125 0
0.28125 0.15625 0
0.3125 0.15625 0
0.25 0.15625 0
0.28125 0.15625 0
0.25 0.1875 0
0.28125 0.1875 0
0.28125 0.15625 0
0.3125 0.15625 0
0.28125 0.1875 0
0.3125 0.1875 0
0.3125 0.125 0
0.34375 0.125 0
0.3125 0.15625 0
0.34375 0.15625 0
0.34375 0.125 0
0.375 0.125 0
0.34375 0.15625 0
0.375 0.15625 0
0.3125 0.15625 0
0.34375 0.15625 0
0.3125 0.1875 0
0.34375 0.1875 0
0.34375 0.15625 0
0.375 0.15625 0
0.34375 0.1875 0
0.375 0.1875 0
0.25 0.1875 0
0.28125 0.1875 0
0.25 0.21875 0
0.28125 0.21875 0
0.28125 0.1875 0
0.3125 0.1875 0
0.28125 0.21875 0
0.3125 0.21875 0
0.25 0.21875 0
0.28125 0.21875 0
0.25 0.25 0
0.28125 0.25 0
0.28125 0.21875 0
0.3125 0.21875 0
0.28125 0.25 0
0.3125 0.25 0
0.3125 0.1875 0
0.34375 0.1875 0
0.3125 0.21875 0
0.34375 0.21875 0
0.34375 0.1875 0
0.375 0.1875 0
0.34375 0.21875 0
0.375 0.21875 0
0.3125 0.21875 0
0.34375 0.21875 0
0.3125 0.25 0
0.34375 0.25 0
0.34375 0.21875 0
0.375 0.21875 0
0.34375 0.25 0
0.375 0.25 0
0.375 0.125 0
0.40625 0.125 0
0.375 0.15625 0
0.40625 0.15625 0
0.40625 0.125 0
0.4375 0.125 0
0.40625 0.15625 0
0.4375 0.15625 0
0.375 0.15625 0
0.40625 0.15625 0
0.375 0.1875 0
0.40625 0.1875 0
0.40625 0.15625 0
0.4375 0.15625 0
0.40625 0.1875 0
0.4375 0.1875 0
0.4375 0.125 0
0.46875 0.125 0
0.4375 0.15625 0
0.46875 0.15625 0
0.46875 0.125 0
0.5 0.125 0
0.46875 0.15625 0
0.5 0.15625 0
0.4375 0.15625 0
0.46875 0.15625 0
0.4375 0.1875 0
0.46875 0.1875 0
0.46875 0.15625 0
0.5 0.15625 0
0.46875 0.1875 0
0.5 0.1875 0
0.375 0.1875 0
0.40625 0.1875 0
0.375 0.21875 0
0.40625 0.21875 0
0.40625 0.1875 0
0.4375 0.1875 0
0.40625 0.21875 0
0.4375 0.21875 0
0.375 0.21875 0
0.40625 0.21875 0
0.375 0.25 0
0.40625 0.25 0
0.40625 0.21875 0
0.4375 0.21875 0
0.40625 0.25 0
0.4375 0.25 0
0.4375 0.1875 0
0.46875 0.1875 0
0.4375 0.21875 0
0.46875 0.21875 0
0.46875 0.1875 0
0.5 0.1875 0
0.46875 0.21875 0
0.5 0.21875 0
0.4375 0.21875 0
0.46875 0.21875 0
0.4375 0.25 0
0.46875 0.25 0
0.46875 0.21875 0
0.5 0.21875 0
0.46875 0.25 0
0.5 0.25 0
0 0.25 0
0.03125 0.25 0
0 0.28125 0
0.03125 0.28125 0
0.03125 0.25 0
0.0625 0.25 0
0.03125 0.28125 0
0.0625 0.28125 0
0 0.28125 0
0.03125 0.28125 0
0 0.3125 0
0.03125 0.3125 0
0.03125 0.28125 0
0.0625 0.28125 0
0.03125 0.3125 0
0.0625 0.3125 0
0.0625 0.25 0
0.09375 0.25 0
0.0625 0.28125 0
0.09375 0.28125 0
0.09375 0.25 0
0.125 0.25 0
0.09375 0.28125 0
0.125 0.28125 0
0.0625 0.28125 0
0.09375 0.28125 0
0.0625 0.3125 0
0.09375 0.3125 0
0.09375 0.28125 0
0.125 0.28125 0
0.09375 0.3125 0
0.125 0.3125 0
0 0.3125 0
0.03125 0.3125 0
0 0.34375 0
0.03125 0.34375 0
0.03125 0.3125 0
0.0625 0.3125 0
0.03125 0.34375 0
0.0625 0.34375 0
0 0.34375 0
0.03125 0.34375 0
0 0.375 0
0.03125 0.375 0
0.03125 0.34375 0
0.0625 0.34375 0
0.03125 0.375 0
0.0625 0.375 0
0.0625 0.3125 0
0.09375 0.3125 0
0.0625 0.34375 0
0.09375 0.34375 0
0.09375 0.3125 0
0.125 0.3125 0
0.09375 0.34375 0
0.125 0.34375 0
0.0625 0.34375 0
0.09375 0.34375 0
0.0625 0.375 0
0.09375 0.375 0
0.09375 0.34375 0
0.125 0.34375 0
0.09375 0.375 0
0.125 0.375 0
0.125 0.25 0
0.15625 0.25 0
0.125 0.28125 0
0.15625 0.28125 0
0.15625 0.25 0
0.1875 0.25 0
0.15625 0.28125 0
0.1875 0.28125 0
0.125 0.28125 0
0.15625 0.28125 0
0.125 0.3125 0
0.15625 0.3125 0
0.15625 0.28125 0
0.1875 0.28125 0
0.15625 0.3125 0
0.1875 0.3125 0
0.1875 0.25 0
0.21875 0.25 0
0.1875 0.28125 0
0.21875 0.28125 0
0.21875 0.25 0
0.25 0.25 0
0.21875 0.28125 0
0.25 0.28125 0
0.1875 0.28125 0
0.21875 0.28125 0
0.1875 0.3125 0
0.21875 0.3125 0
0.21875 0.28125 0
0.25 0.28125 0
0.21875 0.3125 0
0.25 0.3125 0
0.125 0.3125 0
0.15625 0.3125 0
0.125 0.34375 0
0.15625 0.34375 0
0.15625 0.3125 0
0.1875 0.3125 0
0.15625 0.34375 0
0.1875 0.34375 0
0.125 0.34375 0
[...]
POINT_DATA 4096
SCALARS p double 1
LOOKUP_TABLE default
1.8273e-07 8.27117e-05 -7.58064e-05 -2.8787e-06 8.27117e-05 0.000330344 -2.8787e-06 0.000135484 -7.58064e-05 -2.8787e-06 -0.000321285 -0.000135776 -2.8787e-06 0.000135484 -0.000135776 4.44309e-06 0.000330344 0.000608743 0.000135484 0.000291973 0.000608743 0.000820955 0.000291973 0.000406165 0.000135484 0.000291973 4.44309e-06 0.000151986 0.000291973 0.000406165 0.000151986 0.000244196 -0.000321285 -0.000135776 -0.000607293 -0.000291566 -0.000135776 4.44309e-06 -0.000291566 -0.000134333 -0.000607293 -0.000291566 -0.00083846 -0.000407557 -0.000291566 -0.000134333 -0.000407557 -0.000215814 4.44309e-06 0.000151986 -0.000134333 1.80535e-05 0.000151986 0.000244196 1.80535e-05 9.73917e-05 -0.000134333 1.80535e-05 -0.000215814 -3.84053e-05 1.80535e-05 9.73917e-05 -3.84053e-05 4.69629e-05 0.000820955 0.000919209 0.000406165 0.000447344 0.000919209 0.000884501 0.000447344 0.000398354 0.000406165 0.000447344 0.000244196 0.000263343 0.000447344 0.000398354 0.000263343 0.00019385 0.000884501 0.000712341 0.000398354 0.000252495 0.000712341 0.000405915 0.000252495 9.13938e-06 0.000398354 0.000252495 0.00019385 2.87745e-05 0.000252495 9.13938e-06 2.87745e-05 -0.00023374 0.000244196 0.000263343 9.73917e-05 0.000103509 0.000263343 0.00019385 0.000103509 2.63665e-05 9.73917e-05 0.000103509 4.69629e-05 5.27378e-05 0.000103509 2.63665e-05 5.27378e-05 -2.62687e-05 0.00019385 2.87745e-05 2.63665e-05 -0.000138233 2.87745e-05 -0.00023374 -0.000138233 -0.00039172 2.63665e-05 -0.000138233 -2.62687e-05 -0.000191113 -0.000138233 -0.00039172 -0.000191113 -0.000441998 -0.00083846 -0.000407557 -0.000963215 -0.000448055 -0.000407557 -0.000215814 -0.000448055 -0.000215293 -0.000963215 -0.000448055 -0.000954502 -0.000388878 -0.000448055 -0.000215293 -0.000388878 -0.000108442 -0.000215814 -3.84053e-05 -0.000215293 -8.81157e-06 -3.84053e-05 4.69629e-05 -8.81157e-06 9.04273e-05 -0.000215293 -8.81157e-06 -0.000108442 0.000126625 -8.81157e-06 9.04273e-05 0.000126625 0.000243759 -0.000954502 -0.000388878 -0.000796443 -0.000213806 -0.000388878 -0.000108442 -0.000213806 0.000122597 -0.000796443 -0.000213806 -0.000478266 8.93674e-05 -0.000213806 0.000122597 8.93674e-05 0.000492694 -0.000108442 0.000126625 0.000122597 0.000383494 0.000126625 0.000243759 0.000383494 0.000520106 0.000122597 0.000383494 0.000492694 0.000776366 0.000383494 0.000520106 0.000776366 0.000933087 4.69629e-05 5.27378e-05 9.04273e-05 0.0001026 5.27378e-05 -2.62687e-05 0.0001026 2.6527e-05 9.04273e-05 0.0001026 0.000243759 0.000265968 0.0001026 2.6527e-05 0.000265968 0.000195268 -2.62687e-05 -0.000191113 2.6527e-05 -0.0001361 -0.000191113 -0.000441998 -0.0001361 -0.000384091 2.6527e-05 -0.0001361 0.000195268 3.54329e-05 -0.0001361 -0.000384091 3.54329e-05 -0.000211112 0.000243759 0.000265968 0.000520106 0.000553743 0.000265968 0.000195268 0.000553743 0.00048925 0.000520106 0.000553743 0.000933087 0.000978302 0.000553743 0.00048925 0.000978302 0.000919749 0.000195268 3.54329e-05 0.00048925 0.000331872 3.54329e-05 -0.000211112 0.000331872 8.4998e-05 0.00048925 0.000331872 0.000919749 0.000763701 0.000331872 8.4998e-05 0.000763701 0.000514263 0.000405915 -2.78039e-05 9.13938e-06 -0.00032882 -2.78039e-05 -0.000580072 -0.00032882 -0.00075631 9.13938e-06 -0.00032882 -0.00023374 -0.000592116 -0.00032882 -0.00075631 -0.000592116 -0.00104232 -0.000580072 -0.00124126 -0.00075631 -0.00126695 -0.00124126 -0.00200099 -0.00126695 -0.00185326 -0.00075631 -0.00126695 -0.00104232 -0.00157868 -0.00126695 -0.00185326 -0.00157868 -0.00219396 -0.00023374 -0.000592116 -0.00039172 -0.000733159 -0.000592116 -0.00104232 -0.000733159 -0.00115956 -0.00039172 -0.000733159 -0.000441998 -0.000777783 -0.000733159 -0.00115956 -0.000777783 -0.00119591 -0.00104232 -0.00157868 -0.00115956 -0.00166644 -0.00157868 -0.00219396 -0.00166644 -0.00224771 -0.00115956 -0.00166644 -0.00119591 -0.00169261 -0.00166644 -0.00224771 -0.00169261 -0.00226259 -0.00200099 -0.00284787 -0.00185326 -0.00250659 -0.00284787 -0.00376914 -0.00250659 -0.00321698 -0.00185326 -0.00250659 -0.00219396 -0.00287947 -0.00250659 -0.00321698 -0.00287947 -0.00362499 -0.00376914 -0.0047503 -0.00321698 -0.00397302 -0.0047503 -0.00577482 -0.00397302 -0.00476165 -0.00321698 -0.00397302 -0.00362499 -0.00441858 -0.00397302 -0.00476165 -0.00441858 -0.00524641 -0.00219396 -0.00287947 -0.00224771 -0.00289574 -0.00287947 -0.00362499 -0.00289574 -0.0036013 -0.00224771 -0.00289574 -0.00226259 -0.00289903 -0.00289574 -0.0036013 -0.00289903 -0.00359342 -0.00362499 -0.00441858 -0.0036013 -0.00435338 -0.00441858 -0.00524641 -0.00435338 -0.00513897 -0.0036013 -0.00435338 -0.00359342 -0.00433535 -0.00435338 -0.00513897 -0.00433535 -0.00511227 -0.000441998 -0.000777783 -0.000384091 -0.000715811 -0.000777783 -0.00119591 -0.000715811 -0.00112892 -0.000384091 -0.000715811 -0.000211112 -0.000542208 -0.000715811 -0.00112892 -0.000542208 -0.000955611 -0.00119591 -0.00169261 -0.00112892 -0.00162014 -0.00169261 -0.00226259 -0.00162014 -0.00218493 -0.00112892 -0.00162014 -0.000955611 -0.00144848 -0.00162014 -0.00218493 -0.00144848 -0.00201688 -0.000211112 -0.000542208 8.4998e-05 -0.000248832 -0.000542208 -0.000955611 -0.000248832 -0.000667465 8.4998e-05 -0.000248832 0.000514263 0.00017417 -0.000248832 -0.000667465 0.00017417 -0.000254577 -0.000955611 -0.00144848 -0.000667465 -0.00116851 -0.00144848 -0.00201688 -0.00116851 -0.00174865 -0.000667465 -0.00116851 -0.000254577 -0.000770079 -0.00116851 -0.00174865 -0.000770079 -0.00136974 -0.00226259 -0.00289903 -0.00218493 -0.00281724 -0.00289903 -0.00359342 -0.00281724 -0.00350922 -0.00218493 -0.00281724 -0.00201688 -0.00265552 -0.00281724 -0.00350922 -0.00265552 -0.0033572 -0.00359342 -0.00433535 -0.00350922 -0.00425106 -0.00433535 -0.00511227 -0.00425106 -0.00503063 -0.00350922 -0.00425106 -0.0033572 -0.00411254 -0.00425106 -0.00503063 -0.00411254 -0.00490978 -0.00201688 -0.00265552 -0.00174865 -0.00240328 -0.00265552 -0.0033572 -0.00240328 -0.00312586 -0.00174865 -0.00240328 -0.00136974 -0.00204967 -0.00240328 -0.00312586 -0.00204967 -0.00280406 -0.0033572 -0.00411254 -0.00312586 -0.00390749 -0.00411254 -0.00490978 -0.00390749 -0.00473669 -0.00312586 -0.00390749 -0.00280406 -0.00362459 -0.00390749 -0.00473669 -0.00362459 -0.00450005 -0.000478266 8.93674e-05 9.23847e-06 0.000531151 8.93674e-05 0.000492694 0.000531151 0.00101518 9.23847e-06 0.000531151 0.000675734 0.00112201 0.000531151 0.00101518 0.00112201 0.00170328 0.000492694 0.000776366 0.00101518 0.00131898 0.000776366 0.000933087 0.00131898 0.00149629 0.00101518 0.00131898 0.00170328 0.00202533 0.00131898 0.00149629 0.00202533 0.00222402 0.000675734 0.00112201 0.00153255 0.00187332 0.00112201 0.00170328 0.00187332 0.00257105 0.00153255 0.00187332 0.00259351 0.00279822 0.00187332 0.00257105 0.00279822 0.00363445 0.00170328 0.00202533 0.00257105 0.00291031 0.00202533 0.00222402 0.00291031 0.0031318 0.00257105 0.00291031 0.00363445 0.00399063 0.00291031 0.0031318 0.00399063 0.00423697 0.000933087 0.000978302 0.00149629 0.00155274 0.000978302 0.000919749 0.00155274 0.00149939 0.00149629 0.00155274 0.00222402 0.00229132 0.00155274 0.00149939 0.00229132 0.00224235 0.000919749 0.000763701 0.00149939 0.0013432 0.000763701 0.000514263 0.0013432 0.00108886 0.00149939 0.0013432 0.00224235 0.00208454 0.0013432 0.00108886 0.00208454 0.00182317 0.00222402 0.00229132 0.0031318 0.00320988 0.00229132 0.00224235 0.00320988 0.00316469 0.0031318 0.00320988 0.00423697 0.0043262 0.00320988 0.00316469 0.0043262 0.00428462 0.00224235 0.00208454 0.00316469 0.00300414 0.00208454 0.00182317 0.00300414 0.0027342 0.00316469 0.00300414 0.00428462 0.00412081 0.00300414 0.0027342 0.00412081 0.00384159 0.00259351 0.00279822 0.0038755 0.0039123 0.00279822 0.00363445 0.0039123 0.00491193 0.0038755 0.0039123 0.00539891 0.00523402 0.0039123 0.00491193 0.00523402 0.00642516 0.00363445 0.00399063 0.00491193 0.00528536 0.00399063 0.00423697 0.00528536 0.00555925 0.00491193 0.00528536 0.00642516 0.00681673 0.00528536 0.00555925 0.00681673 0.00712138 0.00539891 0.00523402 0.00718821 0.00678547 0.00523402 0.00642516 0.00678547 0.00819988 0.00718821 0.00678547 0.0092728 0.00859343 0.00678547 0.00819988 0.00859343 0.0102671 0.00642516 0.00681673 0.00819988 0.00861076 0.00681673 0.00712138 0.00861076 0.00894956 0.00819988 0.00861076 0.0102671 0.0106985 0.00861076 0.00894956 0.0106985 0.0110745 0.00423697 0.0043262 0.00555925 0.0056604 0.0043262 0.00428462 0.0056604 0.00562276 0.00555925 0.0056604 0.00712138 0.00723554 0.0056604 0.00562276 0.00723554 0.00720255 0.00428462 0.00412081 0.00562276 0.00545588 0.00412081 0.00384159 0.00545588 0.00516772 0.00562276 0.00545588 0.00720255 0.00703343 0.00545588 0.00516772 0.00703343 0.00673771 0.00712138 0.00723554 0.00894956 0.00907775 0.00723554 0.00720255 0.00907775 0.00905018 0.00894956 0.00907775 0.0110745 0.011217 0.00907775 0.00905018 0.011217 0.0111949 0.00720255 0.00703343 0.00905018 0.00887997 0.00703343 0.00673771 0.00887997 0.0085789 0.00905018 0.00887997 0.0111949 0.0110245 0.00887997 0.0085789 0.0110245 0.0107204 0.000514263 0.00017417 0.00108886 0.00073917 0.00017417 -0.000254577 0.00073917 0.000295836 0.00108886 0.00073917 0.00182317 0.00146105 0.00073917 0.000295836 0.00146105 0.000999417 -0.000254577 -0.000770079 0.000295836 -0.000239833 -0.000770079 -0.00136974 -0.000239833 -0.000866056 0.000295836 -0.000239833 0.000999417 0.000438831 -0.000239833 -0.000866056 0.000438831 -0.000219937 0.00182317 0.00146105 0.0027342 0.00235762 0.00146105 0.000999417 0.00235762 0.00187512 0.0027342 0.00235762 0.00384159 0.00344971 0.00235762 0.00187512 0.00344971 0.00294528 0.000999417 0.000438831 0.00187512 0.00128629 0.000438831 -0.000219937 0.00128629 0.000590626 0.00187512 0.00128629 0.00294528 0.00232673 0.00128629 0.000590626 0.00232673 0.00159203 -0.00136974 -0.00204967 -0.000866056 -0.00157988 -0.00204967 -0.00280406 -0.00157988 -0.00237635 -0.000866056 -0.00157988 -0.000219937 -0.000975057 -0.00157988 -0.00237635 -0.000975057 -0.00182273 -0.00280406 -0.00362459 -0.00237635 -0.00324786 -0.00362459 -0.00450005 -0.00324786 -0.00418367 -0.00237635 -0.00324786 -0.00182273 -0.00275639 -0.00324786 -0.00418367 -0.00275639 -0.00376601 -0.000219937 -0.000975057 0.000590626 -0.000211447 -0.000975057 -0.00182273 -0.000211447 -0.00111772 0.000590626 -0.000211447 0.00159203 0.000739785 -0.000211447 -0.00111772 0.000739785 -0.000229874 -0.00182273 -0.00275639 -0.00111772 -0.0021231 -0.00275639 -0.00376601 -0.0021231 -0.00321874 -0.00111772 -0.0021231 -0.000229874 -0.00131398 -0.0021231 -0.00321874 -0.00131398 -0.00250558 0.00384159 0.00344971 0.00516772 0.00476113 0.00344971 0.00294528 0.00476113 0.00423558 0.00516772 0.00476113 0.00673771 0.00631855 0.00476113 0.00423558 0.00631855 0.00577481 0.00294528 0.00232673 0.00423558 0.00358823 0.00232673 0.00159203 0.00358823 0.00281522 0.00423558 0.00358823 0.00577481 0.00510232 0.00358823 0.00281522 0.00510232 0.00429511 0.00673771 0.00631855 0.0085789 0.00815071 0.00631855 0.00577481 0.00815071 0.00759387 0.0085789 0.00815071 0.0107204 0.0102876 0.00815071 0.00759387 0.0102876 0.00972448 0.00577481 0.00510232 0.00759387 0.00690282 0.00510232 0.00429511 0.00690282 0.00606941 0.00759387 0.00690282 0.00972448 0.00902422 0.00690282 0.00606941 0.00902422 0.00817653 0.00159203 0.000739785 0.00281522 0.00191286 0.000739785 -0.000229874 0.00191286 0.000878611 0.00281522 0.00191286 0.00429511 0.00334679 0.00191286 0.000878611 0.00334679 0.00225152 -0.000229874 -0.00131398 0.000878611 -0.000287445 -0.00131398 -0.00250558 -0.000287445 -0.00158122 0.000878611 -0.000287445 0.00225152 0.00100566 -0.000287445 -0.00158122 0.00100566 -0.000390817 0.00429511 0.00334679 0.00606941 0.00508419 0.00334679 0.00225152 0.00508419 0.00393751 0.00606941 0.00508419 0.00817653 0.00716881 0.00508419 0.00393751 0.00716881 0.00598728 0.00225152 0.00100566 0.00393751 0.0026211 0.00100566 -0.000390817 0.0026211 0.00112953 0.00393751 0.0026211 0.00598728 0.00461835 0.0026211 0.00112953 0.00461835 0.0030499 -0.00577482 -0.00682395 -0.00476165 -0.00556817 -0.00682395 -0.00787666 -0.00556817 -0.00637617 -0.00476165 -0.00556817 -0.00524641 -0.00609292 -0.00556817 -0.00637617 -0.00609292 -0.00694076 -0.00787666 -0.00890981 -0.00637617 -0.00716787 -0.00890981 -0.00989853 -0.00716787 -0.00792434 -0.00637617 -0.00716787 -0.00694076 -0.00777127 -0.00716787 -0.00792434 -0.00777127 -0.00856468 -0.00524641 -0.00609292 -0.00513897 -0.0059433 -0.00609292 -0.00694076 -0.0059433 -0.00674991 -0.00513897 -0.0059433 -0.00511227 -0.00590971 -0.0059433 -0.00674991 -0.00590971 -0.00671137 -0.00694076 -0.00777127 -0.00674991 -0.00754094 -0.00777127 -0.00856468 -0.00754094 -0.00829747 -0.00674991 -0.00754094 -0.00671137 -0.00749941 -0.00754094 -0.00829747 -0.00749941 -0.00825472 -0.00989853 -0.0108169 -0.00792434 -0.00862611 -0.0108169 -0.011639 -0.00862611 -0.00925413 -0.00792434 -0.00862611 -0.00856468 -0.00930076 -0.00862611 -0.00925413 -0.00930076 -0.00995996 -0.011639 -0.0123399 -0.00925413 -0.00979056 -0.0123399 -0.0128972 -0.00979056 -0.01022 -0.00925413 -0.00979056 -0.00995996 -0.0105244 -0.00979056 -0.01022 -0.0105244 -0.0109789 -0.00856468 -0.00930076 -0.00829747 -0.00900022 -0.00930076 -0.00995996 -0.00900022 -0.00963053 -0.00829747 -0.00900022 -0.00825472 -0.00895777 -0.00900022 -0.00963053 -0.00895777 -0.00958956 -0.00995996 -0.0105244 -0.00963053 -0.0101715 -0.0105244 -0.0109789 -0.0101715 -0.010609 -0.00963053 -0.0101715 -0.00958956 -0.0101327 -0.0101715 -0.010609 -0.0101327 -0.0105728 -0.00511227 -0.00590971 -0.00503063 -0.00583363 -0.00590971 -0.00671137 -0.00583363 -0.00664374 -0.00503063 -0.00583363 -0.00490978 -0.00573466 -0.00583363 -0.00664374 -0.00573466 -0.00657049 -0.00671137 -0.00749941 -0.00664374 -0.00744276 -0.00749941 -0.00825472 -0.00744276 -0.00821093 -0.00664374 -0.00744276 -0.00657049 -0.00739828 -0.00744276 -0.00821093 -0.00739828 -0.00819717 -0.00490978 -0.00573466 -0.00473669 -0.00559909 -0.00573466 -0.00657049 -0.00559909 -0.00647745 -0.00473669 -0.00559909 -0.00450005 -0.00541596 -0.00559909 -0.00647745 -0.00541596 -0.00635431 -0.00657049 -0.00739828 -0.00647745 -0.00735163 -0.00739828 -0.00819717 -0.00735163 -0.00819916 -0.00647745 -0.00735163 -0.00635431 -0.00729357 -0.00735163 -0.00819916 -0.00729357 -0.00820912 -0.00825472 -0.00895777 -0.00821093 -0.00892791 -0.00895777 -0.00958956 -0.00892791 -0.00957363 -0.00821093 -0.00892791 -0.00819717 -0.00894531 -0.00892791 -0.00957363 -0.00894531 -0.00962077 -0.00958956 -0.0101327 -0.00957363 -0.0101295 -0.0101327 -0.0105728 -0.0101295 -0.0105799 -0.00957363 -0.0101295 -0.00962077 -0.010203 -0.0101295 -0.0105799 -0.010203 -0.0106743 -0.00819717 -0.00894531 -0.00819916 -0.00899602 -0.00894531 -0.00962077 -0.00899602 -0.00971768 -0.00819916 -0.00899602 -0.00820912 -0.00907408 -0.00899602 -0.00971768 -0.00907408 -0.0098605 -0.00962077 -0.010203 -0.00971768 -0.0103408 -0.010203 -0.0106743 -0.0103408 -0.0108447 -0.00971768 -0.0103408 -0.0098605 -0.0105412 -0.0103408 -0.0108447 -0.0105412 -0.0110918 -0.0128972 -0.0132933 -0.01022 -0.0105312 -0.0132933 -0.013517 -0.0105312 -0.0107188 -0.01022 -0.0105312 -0.0109789 -0.0113131 -0.0105312 -0.0107188 -0.0113131 -0.0115225 -0.013517 -0.0135682 -0.0107188 -0.0107828 -0.0135682 -0.0134535 -0.0107828 -0.010746 -0.0107188 -0.0107828 -0.0115225 -0.0116091 -0.0107828 -0.010746 -0.0116091 -0.0115935 -0.0109789 -0.0113131 -0.010609 -0.0109334 -0.0113131 -0.0115225 -0.0109334 -0.0111409 -0.010609 -0.0109334 -0.0105728 -0.0108996 -0.0109334 -0.0111409 -0.0108996 -0.0111086 -0.0115225 -0.0116091 -0.0111409 -0.0112325 -0.0116091 -0.0115935 -0.0112325 -0.011227 -0.0111409 -0.0112325 -0.0111086 -0.0111998 -0.0112325 -0.011227 -0.0111998 -0.0111893 -0.0134535 -0.0132341 -0.010746 -0.0105782 -0.0132341 -0.0129271 -0.0105782 -0.010614 -0.010746 -0.0105782 -0.0115935 -0.0114521 -0.0105782 -0.010614 -0.0114521 -0.0114824 -0.0129271 -0.0120599 -0.010614 -0.00944117 -0.0120599 -0.0131274 -0.00944117 -0.0118973 -0.010614 -0.00944117 -0.0114824 -0.0103194 -0.00944117 -0.0118973 -0.0103194 -0.0122372 -0.0115935 -0.0114521 -0.011227 -0.0110933 -0.0114521 -0.0114824 -0.0110933 -0.0111249 -0.011227 -0.0110933 -0.0111893 -0.0110434 -0.0110933 -0.0111249 -0.0110434 -0.0110409 -0.0114824 -0.0103194 -0.0111249 -0.00993078 -0.0103194 -0.0122372 -0.00993078 -0.0119202 -0.0111249 -0.00993078 -0.0110409 -0.00981603 -0.00993078 -0.0119202 -0.00981603 -0.0116231 -0.0105728 -0.0108996 -0.0105799 -0.0109134 -0.0108996 -0.0111086 -0.0109134 -0.0111242 -0.0105799 -0.0109134 -0.0106743 -0.0110214 -0.0109134 -0.0111242 -0.0110214 -0.0112369 -0.0111086 -0.0111998 -0.0111242 -0.0112109 -0.0111998 -0.0111893 -0.0112109 -0.0111877 -0.0111242 -0.0112109 -0.0112369 -0.0113181 -0.0112109 -0.0111877 -0.0113181 -0.0112781 -0.0106743 -0.0110214 -0.0108447 -0.0112137 -0.0110214 -0.0112369 -0.0112137 -0.0114384 -0.0108447 -0.0112137 -0.0110918 -0.0114932 -0.0112137 -0.0114384 -0.0114932 -0.0117336 -0.0112369 -0.0113181 -0.0114384 -0.011515 -0.0113181 -0.0112781 -0.011515 -0.0114563 -0.0114384 -0.011515 -0.0117336 -0.011808 -0.011515 -0.0114563 -0.011808 -0.0117298 -0.0111893 -0.0110434 -0.0111877 -0.011019 -0.0110434 -0.0110409 -0.011019 -0.0109777 -0.0111877 -0.011019 -0.0112781 -0.0110808 -0.011019 -0.0109777 -0.0110808 -0.0109978 -0.0110409 -0.00981603 -0.0109777 -0.00971034 -0.00981603 -0.0116231 -0.00971034 -0.0114338 -0.0109777 -0.00971034 -0.0109978 -0.00968463 -0.00971034 -0.0114338 -0.00968463 -0.0113371 -0.0112781 -0.0110808 -0.0114563 -0.0112269 -0.0110808 -0.0109978 -0.0112269 -0.0111014 -0.0114563 -0.0112269 -0.0117298 -0.0114651 -0.0112269 -0.0111014 -0.0114651 -0.0112951 -0.0109978 -0.00968463 -0.0111014 -0.00973453 -0.00968463 -0.0113371 -0.00973453 -0.0113406 -0.0111014 -0.00973453 -0.0112951 -0.00986407 -0.00973453 -0.0113406 -0.00986407 -0.0114394 -0.00450005 -0.00541596 -0.00418367 -0.0051692 -0.00541596 -0.00635431 -0.0051692 -0.00618564 -0.00418367 -0.0051692 -0.00376601 -0.00483715 -0.0051692 -0.00618564 -0.00483715 -0.00595035 -0.00635431 -0.00729357 -0.00618564 -0.00720984 -0.00729357 -0.00820912 -0.00720984 -0.0082146 -0.00618564 -0.00720984 -0.00595035 -0.00708078 -0.00720984 -0.0082146 -0.00708078 -0.00819828 -0.00376601 -0.00483715 -0.00321874 -0.00439083 -0.00483715 -0.00595035 -0.00439083 -0.00561966 -0.00321874 -0.00439083 -0.00250558 -0.00379229 -0.00439083 -0.00561966 -0.00379229 -0.00515484 -0.00595035 -0.00708078 -0.00561966 -0.00687887 -0.00708078 -0.00819828 -0.00687887 -0.00813523 -0.00561966 -0.00687887 -0.00515484 -0.00656601 -0.00687887 -0.00813523 -0.00656601 -0.00798965 -0.00820912 -0.00907408 -0.0082146 -0.0091695 -0.00907408 -0.0098605 -0.0091695 -0.0100422 -0.0082146 -0.0091695 -0.00819828 -0.0092682 -0.0091695 -0.0100422 -0.0092682 -0.0102526 -0.0098605 -0.0105412 -0.0100422 -0.0108004 -0.0105412 -0.0110918 -0.0108004 -0.0114149 -0.0100422 -0.0108004 -0.0102526 -0.011113 -0.0108004 -0.0114149 -0.011113 -0.0118134 -0.00819828 -0.0092682 -0.00813523 -0.00934915 -0.0092682 -0.0102526 -0.00934915 -0.010476 -0.00813523 -0.00934915 -0.00798965 -0.00938085 -0.00934915 -0.010476 -0.00938085 -0.0106871 -0.0102526 -0.011113 -0.010476 -0.0114691 -0.011113 -0.0118134 -0.0114691 -0.0122837 -0.010476 -0.0114691 -0.0106871 -0.0118515 -0.0114691 -0.0122837 -0.0118515 -0.0128176 -0.00250558 -0.00379229 -0.00158122 -0.0029929 -0.00379229 -0.00515484 -0.0029929 -0.00450496 -0.00158122 -0.0029929 -0.000390817 -0.00193219 -0.0029929 -0.00450496 -0.00193219 -0.00360454 -0.00515484 -0.00656601 -0.00450496 -0.00609042 -0.00656601 -0.00798965 -0.00609042 -0.00771106 -0.00450496 -0.00609042 -0.00360454 -0.0053831 -0.00609042 -0.00771106 -0.0053831 -0.00722947 -0.000390817 -0.00193219 0.00112953 -0.00053752 -0.00193219 -0.00360454 -0.00053752 -0.00237221 0.00112953 -0.00053752 0.0030499 0.0012736 -0.00053752 -0.00237221 0.0012736 -0.000711881 -0.00360454 -0.0053831 -0.00237221 -0.00435506 -0.0053831 -0.00722947 -0.00435506 -0.00645074 -0.00237221 -0.00435506 