# vtk DataFile Version 3.0
#This file was generated by the deal.II library on 2026/1/5 at 14:19:39
ASCII
DATASET UNSTRUCTURED_GRID

POINTS 4096 double
0 0 0
0.03125 0 0
0 0.03125 0
0.03125 0.03125 0
0.03125 0 0
0.0625 0 0
0.03125 0.03125 0
0.0625 0.03125 0
0 0.03125 0
0.03125 0.03125 0
0 0.0625 0
0.03125 0.0625 0
0.03125 0.03125 0
0.0625 0.03125 0
0.03125 0.0625 0
0.0625 0.0625 0
0.0625 0 0
0.09375 0 0
0.0625 0.03125 0
0.09375 0.03125 0
0.09375 0 0
0.125 0 0
0.09375 0.03125 0
0.125 0.03125 0
0.0625 0.03125 0
0.09375 0.03125 0
0.0625 0.0625 0
0.09375 0.0625 0
0.09375 0.03125 0
0.125 0.03125 0
0.09375 0.0625 0
0.125 0.0625 0
0 0.0625 0
0.03125 0.0625 0
0 0.09375 0
0.03125 0.09375 0
0.03125 0.0625 0
0.0625 0.0625 0
0.03125 0.09375 0
0.0625 0.09375 0
0 0.09375 0
0.03125 0.09375 0
0 0.125 0
0.03125 0.125 0
0.03125 0.09375 0
0.0625 0.09375 0
0.03125 0.125 0
0.0625 0.125 0
0.0625 0.0625 0
0.09375 0.0625 0
0.0625 0.09375 0
0.09375 0.09375 0
0.09375 0.0625 0
0.125 0.0625 0
0.09375 0.09375 0
0.125 0.09375 0
0.0625 0.09375 0
0.09375 0.09375 0
0.0625 0.125 0
0.09375 0.125 0
0.09375 0.09375 0
0.125 0.09375 0
0.09375 0.125 0
0.125 0.125 0
0.125 0 0
0.15625 0 0
0.125 0.03125 0
0.15625 0.03125 0
0.15625 0 0
0.1875 0 0
0.15625 0.03125 0
0.1875 0.03125 0
0.125 0.03125 0
0.15625 0.03125 0
0.125 0.0625 0
0.15625 0.0625 0
0.15625 0.03125 0
0.1875 0.03125 0
0.15625 0.0625 0
0.1875 0.0625 0
0.1875 0 0
0.21875 0 0
0.1875 0.03125 0
0.21875 0.03125 0
0.21875 0 0
0.25 0 0
0.21875 0.03125 0
0.25 0.03125 0
0.1875 0.03125 0
0.21875 0.03125 0
0.1875 0.0625 0
0.21875 0.0625 0
0.21875 0.03125 0
0.25 0.03125 0
0.21875 0.0625 0
0.25 0.0625 0
0.125 0.0625 0
0.15625 0.0625 0
0.125 0.09375 0
0.15625 0.09375 0
0.15625 0.0625 0
0.1875 0.0625 0
0.15625 0.09375 0
0.1875 0.09375 0
0.125 0.09375 0
0.15625 0.09375 0
0.125 0.125 0
0.15625 0.125 0
0.15625 0.09375 0
0.1875 0.09375 0
0.15625 0.125 0
0.1875 0.125 0
0.1875 0.0625 0
0.21875 0.0625 0
0.1875 0.09375 0
0.21875 0.09375 0
0.21875 0.0625 0
0.25 0.0625 0
0.21875 0.09375 0
0.25 0.09375 0
0.1875 0.09375 0
0.21875 0.09375 0
0.1875 0.125 0
0.21875 0.125 0
0.21875 0.09375 0
0.25 0.09375 0
0.21875 0.125 0
0.25 0.125 0
0 0.125 0
0.03125 0.125 0
0 0.15625 0
0.03125 0.15625 0
0.03125 0.125 0
0.0625 0.125 0
0.03125 0.15625 0
0.0625 0.15625 0
0 0.15625 0
0.03125 0.15625 0
0 0.1875 0
0.03125 0.1875 0
0.03125 0.15625 0
0.0625 0.15625 0
0.03125 0.1875 0
0.0625 0.1875 0
0.0625 0.125 0
0.09375 0.125 0
0.0625 0.15625 0
0.09375 0.15625 0
0.09375 0.125 0
0.125 0.125 0
0.09375 0.15625 0
0.125 0.15625 0
0.0625 0.15625 0
0.09375 0.15625 0
0.0625 0.1875 0
0.09375 0.1875 0
0.09375 0.15625 0
0.125 0.15625 0
0.09375 0.1875 0
0.125 0.1875 0
0 0.1875 0
0.03125 0.1875 0
0 0.21875 0
0.03125 0.21875 0
0.03125 0.1875 0
0.0625 0.1875 0
0.03125 0.21875 0
0.0625 0.21875 0
0 0.21875 0
0.03125 0.21875 0
0 0.25 0
0.03125 0.25 0
0.03125 0.21875 0
0.0625 0.21875 0
0.03125 0.25 0
0.0625 0.25 0
0.0625 0.1875 0
0.09375 0.1875 0
0.0625 0.21875 0
0.09375 0.21875 0
0.09375 0.1875 0
0.125 0.1875 0
0.09375 0.21875 0
0.125 0.21875 0
0.0625 0.21875 0
0.09375 0.21875 0
0.0625 0.25 0
0.09375 0.25 0
0.09375 0.21875 0
0.125 0.21875 0
0.09375 0.25 0
0.125 0.25 0
0.125 0.125 0
0.15625 0.125 0
0.125 0.15625 0
0.15625 0.15625 0
0.15625 0.125 0
0.1875 0.125 0
0.15625 0.15625 0
0.1875 0.15625 0
0.125 0.15625 0
0.15625 0.15625 0
0.125 0.1875 0
0.15625 0.1875 0
0.15625 0.15625 0
0.1875 0.15625 0
0.15625 0.1875 0
0.1875 0.1875 0
0.1875 0.125 0
0.21875 0.125 0
0.1875 0.15625 0
0.21875 0.15625 0
0.21875 0.125 0
0.25 0.125 0
0.21875 0.15625 0
0.25 0.15625 0
0.1875 0.15625 0
0.21875 0.15625 0
0.1875 0.1875 0
0.21875 0.1875 0
0.21875 0.15625 0
0.25 0.15625 0
0.21875 0.1875 0
0.25 0.1875 0
0.125 0.1875 0
0.15625 0.1875 0
0.125 0.21875 0
0.15625 0.21875 0
0.15625 0.1875 0
0.1875 0.1875 0
0.15625 0.21875 0
0.1875 0.21875 0
0.125 0.21875 0
0.15625 0.21875 0
0.125 0.25 0
0.15625 0.25 0
0.15625 0.21875 0
0.1875 0.21875 0
0.15625 0.25 0
0.1875 0.25 0
0.1875 0.1875 0
0.21875 0.1875 0
0.1875 0.21875 0
0.21875 0.21875 0
0.21875 0.1875 0
0.25 0.1875 0
0.21875 0.21875 0
0.25 0.21875 0
0.1875 0.21875 0
0.21875 0.21875 0
0.1875 0.25 0
0.21875 0.25 0
0.21875 0.21875 0
0.25 0.21875 0
0.21875 0.25 0
0.25 0.25 0
0.25 0 0
0.28125 0 0
0.25 0.03125 0
0.28125 0.03125 0
0.28125 0 0
0.3125 0 0
0.28125 0.03125 0
0.3125 0.03125 0
0.25 0.03125 0
0.28125 0.03125 0
0.25 0.0625 0
0.28125 0.0625 0
0.28125 0.03125 0
0.3125 0.03125 0
0.28125 0.0625 0
0.3125 0.0625 0
0.3125 0 0
0.34375 0 0
0.3125 0.03125 0
0.34375 0.03125 0
0.34375 0 0
0.375 0 0
0.34375 0.03125 0
0.375 0.03125 0
0.3125 0.03125 0
0.34375 0.03125 0
0.3125 0.0625 0
0.34375 0.0625 0
0.34375 0.03125 0
0.375 0.03125 0
0.34375 0.0625 0
0.375 0.0625 0
0.25 0.0625 0
0.28125 0.0625 0
0.25 0.09375 0
0.28125 0.09375 0
0.28125 0.0625 0
0.3125 0.0625 0
0.28125 0.09375 0
0.3125 0.09375 0
0.25 0.09375 0
0.28125 0.09375 0
0.25 0.125 0
0.28125 0.125 0
0.28125 0.09375 0
0.3125 0.09375 0
0.28125 0.125 0
0.3125 0.125 0
0.3125 0.0625 0
0.34375 0.0625 0
0.3125 0.09375 0
0.34375 0.09375 0
0.34375 0.0625 0
0.375 0.0625 0
0.34375 0.09375 0
0.375 0.09375 0
0.3125 0.09375 0
0.34375 0.09375 0
0.3125 0.125 0
0.34375 0.125 0
0.34375 0.09375 0
0.375 0.09375 0
0.34375 0.125 0
0.375 0.125 0
0.375 0 0
0.40625 0 0
0.375 0.03125 0
0.40625 0.03125 0
0.40625 0 0
0.4375 0 0
0.40625 0.03125 0
0.4375 0.03125 0
0.375 0.03125 0
0.40625 0.03125 0
0.375 0.0625 0
0.40625 0.0625 0
0.40625 0.03125 0
0.4375 0.03125 0
0.40625 0.0625 0
0.4375 0.0625 0
0.4375 0 0
0.46875 0 0
0.4375 0.03125 0
0.46875 0.03125 0
0.46875 0 0
0.5 0 0
0.46875 0.03125 0
0.5 0.03125 0
0.4375 0.03125 0
0.46875 0.03125 0
0.4375 0.0625 0
0.46875 0.0625 0
0.46875 0.03125 0
0.5 0.03125 0
0.46875 0.0625 0
0.5 0.0625 0
0.375 0.0625 0
0.40625 0.0625 0
0.375 0.09375 0
0.40625 0.09375 0
0.40625 0.0625 0
0.4375 0.0625 0
0.40625 0.09375 0
0.4375 0.09375 0
0.375 0.09375 0
0.40625 0.09375 0
0.375 0.125 0
0.40625 0.125 0
0.40625 0.09375 0
0.4375 0.09375 0
0.40625 0.125 0
0.4375 0.125 0
0.4375 0.0625 0
0.46875 0.0625 0
0.4375 0.09375 0
0.46875 0.09375 0
0.46875 0.0625 0
0.5 0.0625 0
0.46875 0.09375 0
0.5 0.09375 0
0.4375 0.09375 0
0.46875 0.09375 0
0.4375 0.125 0
0.46875 0.125 0
0.46875 0.09375 0
0.5 0.09375 0
0.46875 0.125 0
0.5 0.125 0
0.25 0.125 0
0.28125 0.125 0
0.25 0.15625 0
0.28125 0.15625 0
0.28125 0.125 0
0.3125 0.125 0
0.28125 0.15625 0
0.3125 0.15625 0
0.25 0.15625 0
0.28125 0.15625 0
0.25 0.1875 0
0.28125 0.1875 0
0.28125 0.15625 0
0.3125 0.15625 0
0.28125 0.1875 0
0.3125 0.1875 0
0.3125 0.125 0
0.34375 0.125 0
0.3125 0.15625 0
0.34375 0.15625 0
0.34375 0.125 0
0.375 0.125 0
0.34375 0.15625 0
0.375 0.15625 0
0.3125 0.15625 0
0.34375 0.15625 0
0.3125 0.1875 0
0.34375 0.1875 0
0.34375 0.15625 0
0.375 0.15625 0
0.34375 0.1875 0
0.375 0.1875 0
0.25 0.1875 0
0.28125 0.1875 0
0.25 0.21875 0
0.28125 0.21875 0
0.28125 0.1875 0
0.3125 0.1875 0
0.28125 0.21875 0
0.3125 0.21875 0
0.25 0.21875 0
0.28125 0.21875 0
0.25 0.25 0
0.28125 0.25 0
0.28125 0.21875 0
0.3125 0.21875 0
0.28125 0.25 0
0.3125 0.25 0
0.3125 0.1875 0
0.34375 0.1875 0
0.3125 0.21875 0
0.34375 0.21875 0
0.34375 0.1875 0
0.375 0.1875 0
0.34375 0.21875 0
0.375 0.21875 0
0.3125 0.21875 0
0.34375 0.21875 0
0.3125 0.25 0
0.34375 0.25 0
0.34375 0.21875 0
0.375 0.21875 0
0.34375 0.25 0
0.375 0.25 0
0.375 0.125 0
0.40625 0.125 0
0.375 0.15625 0
0.40625 0.15625 0
0.40625 0.125 0
0.4375 0.125 0
0.40625 0.15625 0
0.4375 0.15625 0
0.375 0.15625 0
0.40625 0.15625 0
0.375 0.1875 0
0.40625 0.1875 0
0.40625 0.15625 0
0.4375 0.15625 0
0.40625 0.1875 0
0.4375 0.1875 0
0.4375 0.125 0
0.46875 0.125 0
0.4375 0.15625 0
0.46875 0.15625 0
0.46875 0.125 0
0.5 0.125 0
0.46875 0.15625 0
0.5 0.15625 0
0.4375 0.15625 0
0.46875 0.15625 0
0.4375 0.1875 0
0.46875 0.1875 0
0.46875 0.15625 0
0.5 0.15625 0
0.46875 0.1875 0
0.5 0.1875 0
0.375 0.1875 0
0.40625 0.1875 0
0.375 0.21875 0
0.40625 0.21875 0
0.40625 0.1875 0
0.4375 0.1875 0
0.40625 0.21875 0
0.4375 0.21875 0
0.375 0.21875 0
0.40625 0.21875 0
0.375 0.25 0
0.40625 0.25 0
0.40625 0.21875 0
0.4375 0.21875 0
0.40625 0.25 0
0.4375 0.25 0
0.4375 0.1875 0
0.46875 0.1875 0
0.4375 0.21875 0
0.46875 0.21875 0
0.46875 0.1875 0
0.5 0.1875 0
0.46875 0.21875 0
0.5 0.21875 0
0.4375 0.21875 0
0.46875 0.21875 0
0.4375 0.25 0
0.46875 0.25 0
0.46875 0.21875 0
0.5 0.21875 0
0.46875 0.25 0
0.5 0.25 0
0 0.25 0
0.03125 0.25 0
0 0.28125 0
0.03125 0.28125 0
0.03125 0.25 0
0.0625 0.25 0
0.03125 0.28125 0
0.0625 0.28125 0
0 0.28125 0
0.03125 0.28125 0
0 0.3125 0
0.03125 0.3125 0
0.03125 0.28125 0
0.0625 0.28125 0
0.03125 0.3125 0
0.0625 0.3125 0
0.0625 0.25 0
0.09375 0.25 0
0.0625 0.28125 0
0.09375 0.28125 0
0.09375 0.25 0
0.125 0.25 0
0.09375 0.28125 0
0.125 0.28125 0
0.0625 0.28125 0
0.09375 0.28125 0
0.0625 0.3125 0
0.09375 0.3125 0
0.09375 0.28125 0
0.125 0.28125 0
0.09375 0.3125 0
0.125 0.3125 0
0 0.3125 0
0.03125 0.3125 0
0 0.34375 0
0.03125 0.34375 0
0.03125 0.3125 0
0.0625 0.3125 0
0.03125 0.34375 0
0.0625 0.34375 0
0 0.34375 0
0.03125 0.34375 0
0 0.375 0
0.03125 0.375 0
0.03125 0.34375 0
0.0625 0.34375 0
0.03125 0.375 0
0.0625 0.375 0
0.0625 0.3125 0
0.09375 0.3125 0
0.0625 0.34375 0
0.09375 0.34375 0
0.09375 0.3125 0
0.125 0.3125 0
0.09375 0.34375 0
0.125 0.34375 0
0.0625 0.34375 0
0.09375 0.34375 0
0.0625 0.375 0
0.09375 0.375 0
0.09375 0.34375 0
0.125 0.34375 0
0.09375 0.375 0
0.125 0.375 0
0.125 0.25 0
0.15625 0.25 0
0.125 0.28125 0
0.15625 0.28125 0
0.15625 0.25 0
0.1875 0.25 0
0.15625 0.28125 0
0.1875 0.28125 0
0.125 0.28125 0
0.15625 0.28125 0
0.125 0.3125 0
0.15625 0.3125 0
0.15625 0.28125 0
0.1875 0.28125 0
0.15625 0.3125 0
0.1875 0.3125 0
0.1875 0.25 0
0.21875 0.25 0
0.1875 0.28125 0
0.21875 0.28125 0
0.21875 0.25 0
0.25 0.25 0
0.21875 0.28125 0
0.25 0.28125 0
0.1875 0.28125 0
0.21875 0.28125 0
0.1875 0.3125 0
0.21875 0.3125 0
0.21875 0.28125 0
0.25 0.28125 0
0.21875 0.3125 0
0.25 0.3125 0
0.125 0.3125 0
0.15625 0.3125 0
0.125 0.34375 0
0.15625 0.34375 0
0.15625 0.3125 0
0.1875 0.3125 0
0.15625 0.34375 0
0.1875 0.34375 0
0.125 0.34375 0
[...]
POINT_DATA 4096
SCALARS p double 1
LOOKUP_TABLE default
-1.04836e-05 6.25583e-05 -9.42071e-05 -1.55981e-05 6.25583e-05 0.00030576 -1.55981e-05 0.000118479 -9.42071e-05 -1.55981e-05 -0.000344448 -0.000153662 -1.55981e-05 0.000118479 -0.000153662 -1.60448e-05 0.00030576 0.00058406 0.000118479 0.000274343 0.00058406 0.000799757 0.000274343 0.000390743 0.000118479 0.000274343 -1.60448e-05 0.000131288 0.000274343 0.000390743 0.000131288 0.000225829 -0.000344448 -0.000153662 -0.000636326 -0.000314169 -0.000153662 -1.60448e-05 -0.000314169 -0.000159205 -0.000636326 -0.000314169 -0.000874659 -0.000435142 -0.000314169 -0.000159205 -0.000435142 -0.000245331 -1.60448e-05 0.000131288 -0.000159205 -6.62774e-06 0.000131288 0.000225829 -6.62774e-06 7.50042e-05 -0.000159205 -6.62774e-06 -0.000245331 -6.71433e-05 -6.62774e-06 7.50042e-05 -6.71433e-05 2.07932e-05 0.000799757 0.000903732 0.000390743 0.000435723 0.000903732 0.000876027 0.000435723 0.000391581 0.000390743 0.000435723 0.000225829 0.000248764 0.000435723 0.000391581 0.000248764 0.000184055 0.000876027 0.000711511 0.000391581 0.000251234 0.000711511 0.000412925 0.000251234 1.37396e-05 0.000391581 0.000251234 0.000184055 2.45202e-05 0.000251234 1.37396e-05 2.45202e-05 -0.000231966 0.000225829 0.000248764 7.50042e-05 8.46133e-05 0.000248764 0.000184055 8.46133e-05 1.18078e-05 7.50042e-05 8.46133e-05 2.07932e-05 3.01658e-05 8.46133e-05 1.18078e-05 3.01658e-05 -4.45033e-05 0.000184055 2.45202e-05 1.18078e-05 -0.000147709 2.45202e-05 -0.000231966 -0.000147709 -0.000395566 1.18078e-05 -0.000147709 -4.45033e-05 -0.000204287 -0.000147709 -0.000395566 -0.000204287 -0.000449517 -0.000874659 -0.000435142 -0.00100789 -0.000481425 -0.000435142 -0.000245331 -0.000481425 -0.000250228 -0.00100789 -0.000481425 -0.00100849 -0.000428589 -0.000481425 -0.000250228 -0.000428589 -0.000149406 -0.000245331 -6.71433e-05 -0.000250228 -4.22657e-05 -6.71433e-05 2.07932e-05 -4.22657e-05 5.99364e-05 -0.000250228 -4.22657e-05 -0.000149406 8.7918e-05 -4.22657e-05 5.99364e-05 8.7918e-05 0.000208516 -0.00100849 -0.000428589 -0.00085995 -0.000260039 -0.000428589 -0.000149406 -0.000260039 7.54068e-05 -0.00085995 -0.000260039 -0.000550946 3.67918e-05 -0.000260039 7.54068e-05 3.67918e-05 0.000439411 -0.000149406 8.7918e-05 7.54068e-05 0.000339402 8.7918e-05 0.000208516 0.000339402 0.000480022 7.54068e-05 0.000339402 0.000439411 0.000726995 0.000339402 0.000480022 0.000726995 0.00088829 2.07932e-05 3.01658e-05 5.99364e-05 7.59665e-05 3.01658e-05 -4.45033e-05 7.59665e-05 4.40195e-06 5.99364e-05 7.59665e-05 0.000208516 0.000234985 7.59665e-05 4.40195e-06 0.000234985 0.000169135 -4.45033e-05 -0.000204287 4.40195e-06 -0.000153001 -0.000204287 -0.000449517 -0.000153001 -0.000395137 4.40195e-06 -0.000153001 0.000169135 1.48933e-05 -0.000153001 -0.000395137 1.48933e-05 -0.000225346 0.000208516 0.000234985 0.000480022 0.000518401 0.000234985 0.000169135 0.000518401 0.000459243 0.000480022 0.000518401 0.00088829 0.000938813 0.000518401 0.000459243 0.000938813 0.000886257 0.000169135 1.48933e-05 0.000459243 0.000307989 1.48933e-05 -0.000225346 0.000307989 6.80601e-05 0.000459243 0.000307989 0.000886257 0.000737061 0.000307989 6.80601e-05 0.000737061 0.000495414 0.000412925 -1.30961e-05 1.37396e-05 -0.000318215 -1.30961e-05 -0.000558045 -0.000318215 -0.000739818 1.37396e-05 -0.000318215 -0.000231966 -0.000583983 -0.000318215 -0.000739818 -0.000583983 -0.00102778 -0.000558045 -0.00121244 -0.000739818 -0.0012448 -0.00121244 -0.00196599 -0.0012448 -0.00182574 -0.000739818 -0.0012448 -0.00102778 -0.00155775 -0.0012448 -0.00182574 -0.00155775 -0.00216682 -0.000231966 -0.000583983 -0.000395566 -0.000730891 -0.000583983 -0.00102778 -0.000730891 -0.00115095 -0.000395566 -0.000730891 -0.000449517 -0.000779073 -0.000730891 -0.00115095 -0.000779073 -0.00119061 -0.00102778 -0.00155775 -0.00115095 -0.00165131 -0.00155775 -0.00216682 -0.00165131 -0.00222608 -0.00115095 -0.00165131 -0.00119061 -0.0016804 -0.00165131 -0.00222608 -0.0016804 -0.00224338 -0.00196599 -0.00280736 -0.00182574 -0.00247406 -0.00280736 -0.0037238 -0.00247406 -0.00317982 -0.00182574 -0.00247406 -0.00216682 -0.00284636 -0.00247406 -0.00317982 -0.00284636 -0.0035862 -0.0037238 -0.0047008 -0.00317982 -0.00393159 -0.0047008 -0.00572169 -0.00393159 -0.00471627 -0.00317982 -0.00393159 -0.0035862 -0.0043743 -0.00393159 -0.00471627 -0.0043743 -0.00519689 -0.00216682 -0.00284636 -0.00222608 -0.00286771 -0.00284636 -0.0035862 -0.00286771 -0.00356704 -0.00222608 -0.00286771 -0.00224338 -0.00287284 -0.00286771 -0.00356704 -0.00287284 -0.00356032 -0.0035862 -0.0043743 -0.00356704 -0.00431298 -0.0043743 -0.00519689 -0.00431298 -0.00509262 -0.00356704 -0.00431298 -0.00356032 -0.0042954 -0.00431298 -0.00509262 -0.0042954 -0.00506565 -0.000449517 -0.000779073 -0.000395137 -0.000720359 -0.000779073 -0.00119061 -0.000720359 -0.00112647 -0.000395137 -0.000720359 -0.000225346 -0.000549431 -0.000720359 -0.00112647 -0.000549431 -0.00095524 -0.00119061 -0.0016804 -0.00112647 -0.0016103 -0.0016804 -0.00224338 -0.0016103 -0.00216751 -0.00112647 -0.0016103 -0.00095524 -0.00144007 -0.0016103 -0.00216751 -0.00144007 -0.0020002 -0.000225346 -0.000549431 6.80601e-05 -0.000258037 -0.000549431 -0.00095524 -0.000258037 -0.000668284 6.80601e-05 -0.000258037 0.000495414 0.000164011 -0.000258037 -0.000668284 0.000164011 -0.000255309 -0.00095524 -0.00144007 -0.000668284 -0.00116043 -0.00144007 -0.0020002 -0.00116043 -0.00173137 -0.000668284 -0.00116043 -0.000255309 -0.000760817 -0.00116043 -0.00173137 -0.000760817 -0.00135014 -0.00224338 -0.00287284 -0.00216751 -0.00279217 -0.00287284 -0.00356032 -0.00279217 -0.00347652 -0.00216751 -0.00279217 -0.0020002 -0.00263042 -0.00279217 -0.00347652 -0.00263042 -0.00332369 -0.00356032 -0.0042954 -0.00347652 -0.00421082 -0.0042954 -0.00506565 -0.00421082 -0.00498306 -0.00347652 -0.00421082 -0.00332369 -0.0040708 -0.00421082 -0.00498306 -0.0040708 -0.0048601 -0.0020002 -0.00263042 -0.00173137 -0.00237666 -0.00263042 -0.00332369 -0.00237666 -0.00308998 -0.00173137 -0.00237666 -0.00135014 -0.00201964 -0.00237666 -0.00308998 -0.00201964 -0.00276379 -0.00332369 -0.0040708 -0.00308998 -0.00386265 -0.0040708 -0.0048601 -0.00386265 -0.00468326 -0.00308998 -0.00386265 -0.00276379 -0.00357451 -0.00386265 -0.00468326 -0.00357451 -0.00444072 -0.000550946 3.67918e-05 -7.18481e-05 0.000472739 3.67918e-05 0.000439411 0.000472739 0.000956253 -7.18481e-05 0.000472739 0.000587312 0.00105842 0.000472739 0.000956253 0.00105842 0.00163931 0.000439411 0.000726995 0.000956253 0.00126475 0.000726995 0.00088829 0.00126475 0.00144725 0.000956253 0.00126475 0.00163931 0.00196682 0.00126475 0.00144725 0.00196682 0.00217138 0.000587312 0.00105842 0.00143807 0.00180541 0.00105842 0.00163931 0.00180541 0.00250291 0.00143807 0.00180541 0.00249434 0.00272692 0.00180541 0.00250291 0.00272692 0.00356301 0.00163931 0.00196682 0.00250291 0.00284833 0.00196682 0.00217138 0.00284833 0.00307642 0.00250291 0.00284833 0.00356301 0.00392601 0.00284833 0.00307642 0.00392601 0.00417971 0.00088829 0.000938813 0.00144725 0.00150968 0.000938813 0.000886257 0.00150968 0.00146313 0.00144725 0.00150968 0.00217138 0.00224548 0.00150968 0.00146313 0.00224548 0.00220424 0.000886257 0.000737061 0.00146313 0.00131469 0.000737061 0.000495414 0.00131469 0.00106917 0.00146313 0.00131469 0.00220424 0.0020553 0.00131469 0.00106917 0.0020553 0.00180405 0.00217138 0.00224548 0.00307642 0.00316221 0.00224548 0.00220424 0.00316221 0.00312586 0.00307642 0.00316221 0.00417971 0.00427768 0.00316221 0.00312586 0.00427768 0.00424627 0.00220424 0.0020553 0.00312586 0.00297555 0.0020553 0.00180405 0.00297555 0.00271732 0.00312586 0.00297555 0.00424627 0.00409437 0.00297555 0.00271732 0.00409437 0.00382884 0.00249434 0.00272692 0.00377299 0.0038385 0.00272692 0.00356301 0.0038385 0.00483806 0.00377299 0.0038385 0.00529431 0.00515852 0.0038385 0.00483806 0.00515852 0.00634958 0.00356301 0.00392601 0.00483806 0.00521892 0.00392601 0.00417971 0.00521892 0.00550099 0.00483806 0.00521892 0.00634958 0.0067491 0.00521892 0.00550099 0.0067491 0.00706278 0.00529431 0.00515852 0.00708259 0.00670895 0.00515852 0.00634958 0.00670895 0.00812316 0.00708259 0.00670895 0.00916702 0.00851623 0.00670895 0.00812316 0.00851623 0.0101894 0.00634958 0.0067491 0.00812316 0.00854241 0.0067491 0.00706278 0.00854241 0.00889115 0.00812316 0.00854241 0.0101894 0.0106294 0.00854241 0.00889115 0.0106294 0.0110164 0.00417971 0.00427768 0.00550099 0.00561207 0.00427768 0.00424627 0.00561207 0.00558619 0.00550099 0.00561207 0.00706278 0.00718825 0.00561207 0.00558619 0.00718825 0.00716889 0.00424627 0.00409437 0.00558619 0.00543325 0.00409437 0.00382884 0.00543325 0.00516118 0.00558619 0.00543325 0.00716889 0.00701608 0.00543325 0.00516118 0.00701608 0.00673938 0.00706278 0.00718825 0.00889115 0.00903216 0.00718825 0.00716889 0.00903216 0.00902033 0.00889115 0.00903216 0.0110164 0.0111733 0.00903216 0.00902033 0.0111733 0.0111694 0.00716889 0.00701608 0.00902033 0.00886923 0.00701608 0.00673938 0.00886923 0.00859064 0.00902033 0.00886923 0.0111694 0.0110212 0.00886923 0.00859064 0.0110212 0.0107437 0.000495414 0.000164011 0.00106917 0.00072934 0.000164011 -0.000255309 0.00072934 0.000296734 0.00106917 0.00072934 0.00180405 0.00145323 0.00072934 0.000296734 0.00145323 0.00100393 -0.000255309 -0.000760817 0.000296734 -0.000227552 -0.000760817 -0.00135014 -0.000227552 -0.000842039 0.000296734 -0.000227552 0.00100393 0.000456458 -0.000227552 -0.000842039 0.000456458 -0.000188792 0.00180405 0.00145323 0.00271732 0.00235385 0.00145323 0.00100393 0.00235385 0.00188568 0.00271732 0.00235385 0.00382884 0.00345233 0.00235385 0.00188568 0.00345233 0.00296474 0.00100393 0.000456458 0.00188568 0.00131212 0.000456458 -0.000188792 0.00131212 0.000632225 0.00188568 0.00131212 0.00296474 0.00236421 0.00131212 0.000632225 0.00236421 0.00164817 -0.00135014 -0.00201964 -0.000842039 -0.00154406 -0.00201964 -0.00276379 -0.00154406 -0.00232904 -0.000842039 -0.00154406 -0.000188792 -0.000930387 -0.00154406 -0.00232904 -0.000930387 -0.00176498 -0.00276379 -0.00357451 -0.00232904 -0.0031897 -0.00357451 -0.00444072 -0.0031897 -0.00411541 -0.00232904 -0.0031897 -0.00176498 -0.00268641 -0.0031897 -0.00411541 -0.00268641 -0.00368484 -0.000188792 -0.000930387 0.000632225 -0.00015412 -0.000930387 -0.00176498 -0.00015412 -0.00104523 0.000632225 -0.00015412 0.00164817 0.00081455 -0.00015412 -0.00104523 0.00081455 -0.000137141 -0.00176498 -0.00268641 -0.00104523 -0.00203652 -0.00268641 -0.00368484 -0.00203652 -0.00311945 -0.00104523 -0.00203652 -0.000137141 -0.00120458 -0.00203652 -0.00311945 -0.00120458 -0.00238128 0.00382884 0.00345233 0.00516118 0.00477277 0.00345233 0.00296474 0.00477277 0.00426725 0.00516118 0.00477277 0.00673938 0.00634186 0.00477277 0.00426725 0.00634186 0.00582215 0.00296474 0.00236421 0.00426725 0.0036414 0.00236421 0.00164817 0.0036414 0.00289076 0.00426725 0.0036414 0.00582215 0.00517559 0.0036414 0.00289076 0.00517559 0.00439559 0.00673938 0.00634186 0.00859064 0.00818831 0.00634186 0.00582215 0.00818831 0.00766042 0.00859064 0.00818831 0.0107437 0.0103418 0.00818831 0.00766042 0.0103418 0.00981354 0.00582215 0.00517559 0.00766042 0.0070009 0.00517559 0.00439559 0.0070009 0.00620087 0.00766042 0.0070009 0.00981354 0.00915167 0.0070009 0.00620087 0.00915167 0.00834512 0.00164817 0.00081455 0.00289076 0.00201083 0.00081455 -0.000137141 0.00201083 0.000998393 0.00289076 0.00201083 0.00439559 0.00347483 0.00201083 0.000998393 0.00347483 0.00240666 -0.000137141 -0.00120458 0.000998393 -0.000147325 -0.00120458 -0.00238128 -0.000147325 -0.00142294 0.000998393 -0.000147325 0.00240666 0.00118634 -0.000147325 -0.00142294 0.00118634 -0.000187116 0.00439559 0.00347483 0.00620087 0.00524996 0.00347483 0.00240666 0.00524996 0.00413751 0.00620087 0.00524996 0.00834512 0.00738034 0.00524996 0.00413751 0.00738034 0.00624242 0.00240666 0.00118634 0.00413751 0.00285391 0.00118634 -0.000187116 0.00285391 0.00139245 0.00413751 0.00285391 0.00624242 0.0049162 0.00285391 0.00139245 0.0049162 0.00338796 -0.00572169 -0.00676745 -0.00471627 -0.00551896 -0.00676745 -0.00781673 -0.00551896 -0.00632306 -0.00471627 -0.00551896 -0.00519689 -0.00603825 -0.00551896 -0.00632306 -0.00603825 -0.00688088 -0.00781673 -0.00884601 -0.00632306 -0.00711048 -0.00884601 -0.00983001 -0.00711048 -0.00786206 -0.00632306 -0.00711048 -0.00688088 -0.00770577 -0.00711048 -0.00786206 -0.00770577 -0.00849299 -0.00519689 -0.00603825 -0.00509262 -0.00589109 -0.00603825 -0.00688088 -0.00589109 -0.00669176 -0.00509262 -0.00589109 -0.00506565 -0.00585652 -0.00589109 -0.00669176 -0.00585652 -0.00665159 -0.00688088 -0.00770577 -0.00669176 -0.00747651 -0.00770577 -0.00849299 -0.00747651 -0.0082263 -0.00669176 -0.00747651 -0.00665159 -0.00743277 -0.00747651 -0.0082263 -0.00743277 -0.0081808 -0.00983001 -0.0107424 -0.00786206 -0.00855812 -0.0107424 -0.0115568 -0.00855812 -0.00917934 -0.00786206 -0.00855812 -0.00849299 -0.00922214 -0.00855812 -0.00917934 -0.00922214 -0.00987346 -0.0115568 -0.012248 -0.00917934 -0.00970783 -0.012248 -0.0127939 -0.00970783 -0.0101284 -0.00917934 -0.00970783 -0.00987346 -0.010429 -0.00970783 -0.0101284 -0.010429 -0.0108739 -0.00849299 -0.00922214 -0.0082263 -0.00892167 -0.00922214 -0.00987346 -0.00892167 -0.00954384 -0.0082263 -0.00892167 -0.0081808 -0.008876 -0.00892167 -0.00954384 -0.008876 -0.00949924 -0.00987346 -0.010429 -0.00954384 -0.0100758 -0.010429 -0.0108739 -0.0100758 -0.0105038 -0.00954384 -0.0100758 -0.00949924 -0.0100331 -0.0100758 -0.0105038 -0.0100331 -0.0104633 -0.00506565 -0.00585652 -0.00498306 -0.0057789 -0.00585652 -0.00665159 -0.0057789 -0.00658191 -0.00498306 -0.0057789 -0.0048601 -0.00567727 -0.0057789 -0.00658191 -0.00567727 -0.00650553 -0.00665159 -0.00743277 -0.00658191 -0.00737363 -0.00743277 -0.0081808 -0.00737363 -0.00813415 -0.00658191 -0.00737363 -0.00650553 -0.0073257 -0.00737363 -0.00813415 -0.0073257 -0.00811668 -0.0048601 -0.00567727 -0.00468326 -0.00553745 -0.00567727 -0.00650553 -0.00553745 -0.00640786 -0.00468326 -0.00553745 -0.00444072 -0.0053479 -0.00553745 -0.00640786 -0.0053479 -0.00627798 -0.00650553 -0.0073257 -0.00640786 -0.00727419 -0.0073257 -0.00811668 -0.00727419 -0.0081137 -0.00640786 -0.00727419 -0.00627798 -0.00720926 -0.00727419 -0.0081137 -0.00720926 -0.00811675 -0.0081808 -0.008876 -0.00813415 -0.00884292 -0.008876 -0.00949924 -0.00884292 -0.00947972 -0.00813415 -0.00884292 -0.00811668 -0.00885633 -0.00884292 -0.00947972 -0.00885633 -0.00952257 -0.00949924 -0.0100331 -0.00947972 -0.0100259 -0.0100331 -0.0104633 -0.0100259 -0.010466 -0.00947972 -0.0100259 -0.00952257 -0.0100947 -0.0100259 -0.010466 -0.0100947 -0.0105551 -0.00811668 -0.00885633 -0.0081137 -0.00890194 -0.00885633 -0.00952257 -0.00890194 -0.00961414 -0.0081137 -0.00890194 -0.00811675 -0.0089731 -0.00890194 -0.00961414 -0.0089731 -0.00974997 -0.00952257 -0.0100947 -0.00961414 -0.0102267 -0.0100947 -0.0105551 -0.0102267 -0.0107191 -0.00961414 -0.0102267 -0.00974997 -0.0104198 -0.0102267 -0.0107191 -0.0104198 -0.0109583 -0.0127939 -0.0131771 -0.0101284 -0.0104299 -0.0131771 -0.0133872 -0.0104299 -0.0106075 -0.0101284 -0.0104299 -0.0108739 -0.0111979 -0.0104299 -0.0106075 -0.0111979 -0.0113972 -0.0133872 -0.0134252 -0.0106075 -0.0106622 -0.0134252 -0.0132989 -0.0106622 -0.0106172 -0.0106075 -0.0106622 -0.0113972 -0.0114743 -0.0106622 -0.0106172 -0.0114743 -0.0114504 -0.0108739 -0.0111979 -0.0105038 -0.0108183 -0.0111979 -0.0113972 -0.0108183 -0.0110159 -0.0105038 -0.0108183 -0.0104633 -0.0107799 -0.0108183 -0.0110159 -0.0107799 -0.0109788 -0.0113972 -0.0114743 -0.0110159 -0.0110985 -0.0114743 -0.0114504 -0.0110985 -0.0110851 -0.0110159 -0.0110985 -0.0109788 -0.0110605 -0.0110985 -0.0110851 -0.0110605 -0.0110416 -0.0132989 -0.0130704 -0.0106172 -0.0104439 -0.0130704 -0.0127581 -0.0104439 -0.0104717 -0.0106172 -0.0104439 -0.0114504 -0.0113034 -0.0104439 -0.0104717 -0.0113034 -0.0113258 -0.0127581 -0.0118994 -0.0104717 -0.00931217 -0.0118994 -0.0129523 -0.00931217 -0.01174 -0.0104717 -0.00931217 -0.0113258 -0.0101762 -0.00931217 -0.01174 -0.0101762 -0.012072 -0.0114504 -0.0113034 -0.0110851 -0.0109461 -0.0113034 -0.0113258 -0.0109461 -0.0109694 -0.0110851 -0.0109461 -0.0110416 -0.01089 -0.0109461 -0.0109694 -0.01089 -0.0108787 -0.0113258 -0.0101762 -0.0109694 -0.00978909 -0.0101762 -0.012072 -0.00978909 -0.0117522 -0.0109694 -0.00978909 -0.0108787 -0.00966769 -0.00978909 -0.0117522 -0.00966769 -0.0114473 -0.0104633 -0.0107799 -0.010466 -0.0107887 -0.0107799 -0.0109788 -0.0107887 -0.0109887 -0.010466 -0.0107887 -0.0105551 -0.0108906 -0.0107887 -0.0109887 -0.0108906 -0.0110944 -0.0109788 -0.0110605 -0.0109887 -0.0110652 -0.0110605 -0.0110416 -0.0110652 -0.0110329 -0.0109887 -0.0110652 -0.0110944 -0.0111643 -0.0110652 -0.0110329 -0.0111643 -0.0111139 -0.0105551 -0.0108906 -0.0107191 -0.0110756 -0.0108906 -0.0110944 -0.0110756 -0.0112874 -0.0107191 -0.0110756 -0.0109583 -0.0113462 -0.0110756 -0.0112874 -0.0113462 -0.0115723 -0.0110944 -0.0111643 -0.0112874 -0.0113512 -0.0111643 -0.0111139 -0.0113512 -0.0112805 -0.0112874 -0.0113512 -0.0115723 -0.0116322 -0.0113512 -0.0112805 -0.0116322 -0.0115401 -0.0110416 -0.01089 -0.0110329 -0.0108575 -0.01089 -0.0108787 -0.0108575 -0.0108063 -0.0110329 -0.0108575 -0.0111139 -0.0109088 -0.0108575 -0.0108063 -0.0109088 -0.0108144 -0.0108787 -0.00966769 -0.0108063 -0.00955307 -0.00966769 -0.0114473 -0.00955307 -0.0112459 -0.0108063 -0.00955307 -0.0108144 -0.00951544 -0.00955307 -0.0112459 -0.00951544 -0.0111335 -0.0111139 -0.0109088 -0.0112805 -0.0110417 -0.0109088 -0.0108144 -0.0110417 -0.010903 -0.0112805 -0.0110417 -0.0115401 -0.0112639 -0.0110417 -0.010903 -0.0112639 -0.0110783 -0.0108144 -0.00951544 -0.010903 -0.00955054 -0.00951544 -0.0111335 -0.00955054 -0.0111175 -0.010903 -0.00955054 -0.0110783 -0.00966198 -0.00955054 -0.0111175 -0.00966198 -0.0111927 -0.00444072 -0.0053479 -0.00411541 -0.00509162 -0.0053479 -0.00627798 -0.00509162 -0.00609951 -0.00411541 -0.00509162 -0.00368484 -0.00474594 -0.00509162 -0.00609951 -0.00474594 -0.00585026 -0.00627798 -0.00720926 -0.00609951 -0.0071157 -0.00720926 -0.00811675 -0.0071157 -0.00811257 -0.00609951 -0.0071157 -0.00585026 -0.00697271 -0.0071157 -0.00811257 -0.00697271 -0.00808269 -0.00368484 -0.00474594 -0.00311945 -0.00428044 -0.00474594 -0.00585026 -0.00428044 -0.00549983 -0.00311945 -0.00428044 -0.00238128 -0.00365523 -0.00428044 -0.00549983 -0.00365523 -0.00500739 -0.00585026 -0.00697271 -0.00549983 -0.00675106 -0.00697271 -0.00808269 -0.00675106 -0.0080004 -0.00549983 -0.00675106 -0.00500739 -0.00641038 -0.00675106 -0.0080004 -0.00641038 -0.00782755 -0.00811675 -0.0089731 -0.00811257 -0.0090591 -0.0089731 -0.00974997 -0.0090591 -0.00992237 -0.00811257 -0.0090591 -0.00808269 -0.00914478 -0.0090591 -0.00992237 -0.00914478 -0.0101203 -0.00974997 -0.0104198 -0.00992237 -0.0106697 -0.0104198 -0.0109583 -0.0106697 -0.0112716 -0.00992237 -0.0106697 -0.0101203 -0.0109701 -0.0106697 -0.0112716 -0.0109701 -0.0116577 -0.00808269 -0.00914478 -0.0080004 -0.00920736 -0.00914478 -0.0101203 -0.00920736 -0.0103264 -0.0080004 -0.00920736 -0.00782755 -0.00921302 -0.00920736 -0.0103264 -0.00921302 -0.0105131 -0.0101203 -0.0109701 -0.0103264 -0.0113098 -0.0109701 -0.0116577 -0.0113098 -0.0121121 -0.0103264 -0.0113098 -0.0105131 -0.0116696 -0.0113098 -0.0121121 -0.0116696 -0.0126248 -0.00238128 -0.00365523 -0.00142294 -0.00281923 -0.00365523 -0.00500739 -0.00281923 -0.00431912 -0.00142294 -0.00281923 -0.000187116 -0.0017089 -0.00281923 -0.00431912 -0.0017089 -0.00336587 -0.00500739 -0.00641038 -0.00431912 -0.00589562 -0.00641038 -0.00782755 -0.00589562 -0.00751018 -0.00431912 -0.00589562 -0.00336587 -0.00513364 -0.00589562 -0.00751018 -0.00513364 -0.00697371 -0.000187116 -0.0017089 0.00139245 -0.000248478 -0.0017089 -0.00336587 -0.000248478 -0.00206228 0.00139245 -0.000248478 0.00338796 0.00164757 -0.000248478 -0.00206228 0.00164757 -0.000308121 -0.00336587 -0.00513364 -0.00206228 -0.00403043 -0.00513364 -0.00697371 -0.004030