# vtk DataFile Version 3.0
#This file was generated by the deal.II library on 2026/1/5 at 14:19:34
ASCII
DATASET UNSTRUCTURED_GRID

POINTS 4096 double
0 0 0
0.03125 0 0
0 0.03125 0
0.03125 0.03125 0
0.03125 0 0
0.0625 0 0
0.03125 0.03125 0
0.0625 0.03125 0
0 0.03125 0
0.03125 0.03125 0
0 0.0625 0
0.03125 0.0625 0
0.03125 0.03125 0
0.0625 0.03125 0
0.03125 0.0625 0
0.0625 0.0625 0
0.0625 0 0
0.09375 0 0
0.0625 0.03125 0
0.09375 0.03125 0
0.09375 0 0
0.125 0 0
0.09375 0.03125 0
0.125 0.03125 0
0.0625 0.03125 0
0.09375 0.03125 0
0.0625 0.0625 0
0.09375 0.0625 0
0.09375 0.03125 0
0.125 0.03125 0
0.09375 0.0625 0
0.125 0.0625 0
0 0.0625 0
0.03125 0.0625 0
0 0.09375 0
0.03125 0.09375 0
0.03125 0.0625 0
0.0625 0.0625 0
0.03125 0.09375 0
0.0625 0.09375 0
0 0.09375 0
0.03125 0.09375 0
0 0.125 0
0.03125 0.125 0
0.03125 0.09375 0
0.0625 0.09375 0
0.03125 0.125 0
0.0625 0.125 0
0.0625 0.0625 0
0.09375 0.0625 0
0.0625 0.09375 0
0.09375 0.09375 0
0.09375 0.0625 0
0.125 0.0625 0
0.09375 0.09375 0
0.125 0.09375 0
0.0625 0.09375 0
0.09375 0.09375 0
0.0625 0.125 0
0.09375 0.125 0
0.09375 0.09375 0
0.125 0.09375 0
0.09375 0.125 0
0.125 0.125 0
0.125 0 0
0.15625 0 0
0.125 0.03125 0
0.15625 0.03125 0
0.15625 0 0
0.1875 0 0
0.15625 0.03125 0
0.1875 0.03125 0
0.125 0.03125 0
0.15625 0.03125 0
0.125 0.0625 0
0.15625 0.0625 0
0.15625 0.03125 0
0.1875 0.03125 0
0.15625 0.0625 0
0.1875 0.0625 0
0.1875 0 0
0.21875 0 0
0.1875 0.03125 0
0.21875 0.03125 0
0.21875 0 0
0.25 0 0
0.21875 0.03125 0
0.25 0.03125 0
0.1875 0.03125 0
0.21875 0.03125 0
0.1875 0.0625 0
0.21875 0.0625 0
0.21875 0.03125 0
0.25 0.03125 0
0.21875 0.0625 0
0.25 0.0625 0
0.125 0.0625 0
0.15625 0.0625 0
0.125 0.09375 0
0.15625 0.09375 0
0.15625 0.0625 0
0.1875 0.0625 0
0.15625 0.09375 0
0.1875 0.09375 0
0.125 0.09375 0
0.15625 0.09375 0
0.125 0.125 0
0.15625 0.125 0
0.15625 0.09375 0
0.1875 0.09375 0
0.15625 0.125 0
0.1875 0.125 0
0.1875 0.0625 0
0.21875 0.0625 0
0.1875 0.09375 0
0.21875 0.09375 0
0.21875 0.0625 0
0.25 0.0625 0
0.21875 0.09375 0
0.25 0.09375 0
0.1875 0.09375 0
0.21875 0.09375 0
0.1875 0.125 0
0.21875 0.125 0
0.21875 0.09375 0
0.25 0.09375 0
0.21875 0.125 0
0.25 0.125 0
0 0.125 0
0.03125 0.125 0
0 0.15625 0
0.03125 0.15625 0
0.03125 0.125 0
0.0625 0.125 0
0.03125 0.15625 0
0.0625 0.15625 0
0 0.15625 0
0.03125 0.15625 0
0 0.1875 0
0.03125 0.1875 0
0.03125 0.15625 0
0.0625 0.15625 0
0.03125 0.1875 0
0.0625 0.1875 0
0.0625 0.125 0
0.09375 0.125 0
0.0625 0.15625 0
0.09375 0.15625 0
0.09375 0.125 0
0.125 0.125 0
0.09375 0.15625 0
0.125 0.15625 0
0.0625 0.15625 0
0.09375 0.15625 0
0.0625 0.1875 0
0.09375 0.1875 0
0.09375 0.15625 0
0.125 0.15625 0
0.09375 0.1875 0
0.125 0.1875 0
0 0.1875 0
0.03125 0.1875 0
0 0.21875 0
0.03125 0.21875 0
0.03125 0.1875 0
0.0625 0.1875 0
0.03125 0.21875 0
0.0625 0.21875 0
0 0.21875 0
0.03125 0.21875 0
0 0.25 0
0.03125 0.25 0
0.03125 0.21875 0
0.0625 0.21875 0
0.03125 0.25 0
0.0625 0.25 0
0.0625 0.1875 0
0.09375 0.1875 0
0.0625 0.21875 0
0.09375 0.21875 0
0.09375 0.1875 0
0.125 0.1875 0
0.09375 0.21875 0
0.125 0.21875 0
0.0625 0.21875 0
0.09375 0.21875 0
0.0625 0.25 0
0.09375 0.25 0
0.09375 0.21875 0
0.125 0.21875 0
0.09375 0.25 0
0.125 0.25 0
0.125 0.125 0
0.15625 0.125 0
0.125 0.15625 0
0.15625 0.15625 0
0.15625 0.125 0
0.1875 0.125 0
0.15625 0.15625 0
0.1875 0.15625 0
0.125 0.15625 0
0.15625 0.15625 0
0.125 0.1875 0
0.15625 0.1875 0
0.15625 0.15625 0
0.1875 0.15625 0
0.15625 0.1875 0
0.1875 0.1875 0
0.1875 0.125 0
0.21875 0.125 0
0.1875 0.15625 0
0.21875 0.15625 0
0.21875 0.125 0
0.25 0.125 0
0.21875 0.15625 0
0.25 0.15625 0
0.1875 0.15625 0
0.21875 0.15625 0
0.1875 0.1875 0
0.21875 0.1875 0
0.21875 0.15625 0
0.25 0.15625 0
0.21875 0.1875 0
0.25 0.1875 0
0.125 0.1875 0
0.15625 0.1875 0
0.125 0.21875 0
0.15625 0.21875 0
0.15625 0.1875 0
0.1875 0.1875 0
0.15625 0.21875 0
0.1875 0.21875 0
0.125 0.21875 0
0.15625 0.21875 0
0.125 0.25 0
0.15625 0.25 0
0.15625 0.21875 0
0.1875 0.21875 0
0.15625 0.25 0
0.1875 0.25 0
0.1875 0.1875 0
0.21875 0.1875 0
0.1875 0.21875 0
0.21875 0.21875 0
0.21875 0.1875 0
0.25 0.1875 0
0.21875 0.21875 0
0.25 0.21875 0
0.1875 0.21875 0
0.21875 0.21875 0
0.1875 0.25 0
0.21875 0.25 0
0.21875 0.21875 0
0.25 0.21875 0
0.21875 0.25 0
0.25 0.25 0
0.25 0 0
0.28125 0 0
0.25 0.03125 0
0.28125 0.03125 0
0.28125 0 0
0.3125 0 0
0.28125 0.03125 0
0.3125 0.03125 0
0.25 0.03125 0
0.28125 0.03125 0
0.25 0.0625 0
0.28125 0.0625 0
0.28125 0.03125 0
0.3125 0.03125 0
0.28125 0.0625 0
0.3125 0.0625 0
0.3125 0 0
0.34375 0 0
0.3125 0.03125 0
0.34375 0.03125 0
0.34375 0 0
0.375 0 0
0.34375 0.03125 0
0.375 0.03125 0
0.3125 0.03125 0
0.34375 0.03125 0
0.3125 0.0625 0
0.34375 0.0625 0
0.34375 0.03125 0
0.375 0.03125 0
0.34375 0.0625 0
0.375 0.0625 0
0.25 0.0625 0
0.28125 0.0625 0
0.25 0.09375 0
0.28125 0.09375 0
0.28125 0.0625 0
0.3125 0.0625 0
0.28125 0.09375 0
0.3125 0.09375 0
0.25 0.09375 0
0.28125 0.09375 0
0.25 0.125 0
0.28125 0.125 0
0.28125 0.09375 0
0.3125 0.09375 0
0.28125 0.125 0
0.3125 0.125 0
0.3125 0.0625 0
0.34375 0.0625 0
0.3125 0.09375 0
0.34375 0.09375 0
0.34375 0.0625 0
0.375 0.0625 0
0.34375 0.09375 0
0.375 0.09375 0
0.3125 0.09375 0
0.34375 0.09375 0
0.3125 0.125 0
0.34375 0.125 0
0.34375 0.09375 0
0.375 0.09375 0
0.34375 0.125 0
0.375 0.125 0
0.375 0 0
0.40625 0 0
0.375 0.03125 0
0.40625 0.03125 0
0.40625 0 0
0.4375 0 0
0.40625 0.03125 0
0.4375 0.03125 0
0.375 0.03125 0
0.40625 0.03125 0
0.375 0.0625 0
0.40625 0.0625 0
0.40625 0.03125 0
0.4375 0.03125 0
0.40625 0.0625 0
0.4375 0.0625 0
0.4375 0 0
0.46875 0 0
0.4375 0.03125 0
0.46875 0.03125 0
0.46875 0 0
0.5 0 0
0.46875 0.03125 0
0.5 0.03125 0
0.4375 0.03125 0
0.46875 0.03125 0
0.4375 0.0625 0
0.46875 0.0625 0
0.46875 0.03125 0
0.5 0.03125 0
0.46875 0.0625 0
0.5 0.0625 0
0.375 0.0625 0
0.40625 0.0625 0
0.375 0.09375 0
0.40625 0.09375 0
0.40625 0.0625 0
0.4375 0.0625 0
0.40625 0.09375 0
0.4375 0.09375 0
0.375 0.09375 0
0.40625 0.09375 0
0.375 0.125 0
0.40625 0.125 0
0.40625 0.09375 0
0.4375 0.09375 0
0.40625 0.125 0
0.4375 0.125 0
0.4375 0.0625 0
0.46875 0.0625 0
0.4375 0.09375 0
0.46875 0.09375 0
0.46875 0.0625 0
0.5 0.0625 0
0.46875 0.09375 0
0.5 0.09375 0
0.4375 0.09375 0
0.46875 0.09375 0
0.4375 0.125 0
0.46875 0.125 0
0.46875 0.09375 0
0.5 0.09375 0
0.46875 0.125 0
0.5 0.125 0
0.25 0.125 0
0.28125 0.125 0
0.25 0.15625 0
0.28125 0.15625 0
0.28125 0.125 0
0.3125 0.125 0
0.28125 0.15625 0
0.3125 0.15625 0
0.25 0.15625 0
0.28125 0.15625 0
0.25 0.1875 0
0.28125 0.1875 0
0.28125 0.15625 0
0.3125 0.15625 0
0.28125 0.1875 0
0.3125 0.1875 0
0.3125 0.125 0
0.34375 0.125 0
0.3125 0.15625 0
0.34375 0.15625 0
0.34375 0.125 0
0.375 0.125 0
0.34375 0.15625 0
0.375 0.15625 0
0.3125 0.15625 0
0.34375 0.15625 0
0.3125 0.1875 0
0.34375 0.1875 0
0.34375 0.15625 0
0.375 0.15625 0
0.34375 0.1875 0
0.375 0.1875 0
0.25 0.1875 0
0.28125 0.1875 0
0.25 0.21875 0
0.28125 0.21875 0
0.28125 0.1875 0
0.3125 0.1875 0
0.28125 0.21875 0
0.3125 0.21875 0
0.25 0.21875 0
0.28125 0.21875 0
0.25 0.25 0
0.28125 0.25 0
0.28125 0.21875 0
0.3125 0.21875 0
0.28125 0.25 0
0.3125 0.25 0
0.3125 0.1875 0
0.34375 0.1875 0
0.3125 0.21875 0
0.34375 0.21875 0
0.34375 0.1875 0
0.375 0.1875 0
0.34375 0.21875 0
0.375 0.21875 0
0.3125 0.21875 0
0.34375 0.21875 0
0.3125 0.25 0
0.34375 0.25 0
0.34375 0.21875 0
0.375 0.21875 0
0.34375 0.25 0
0.375 0.25 0
0.375 0.125 0
0.40625 0.125 0
0.375 0.15625 0
0.40625 0.15625 0
0.40625 0.125 0
0.4375 0.125 0
0.40625 0.15625 0
0.4375 0.15625 0
0.375 0.15625 0
0.40625 0.15625 0
0.375 0.1875 0
0.40625 0.1875 0
0.40625 0.15625 0
0.4375 0.15625 0
0.40625 0.1875 0
0.4375 0.1875 0
0.4375 0.125 0
0.46875 0.125 0
0.4375 0.15625 0
0.46875 0.15625 0
0.46875 0.125 0
0.5 0.125 0
0.46875 0.15625 0
0.5 0.15625 0
0.4375 0.15625 0
0.46875 0.15625 0
0.4375 0.1875 0
0.46875 0.1875 0
0.46875 0.15625 0
0.5 0.15625 0
0.46875 0.1875 0
0.5 0.1875 0
0.375 0.1875 0
0.40625 0.1875 0
0.375 0.21875 0
0.40625 0.21875 0
0.40625 0.1875 0
0.4375 0.1875 0
0.40625 0.21875 0
0.4375 0.21875 0
0.375 0.21875 0
0.40625 0.21875 0
0.375 0.25 0
0.40625 0.25 0
0.40625 0.21875 0
0.4375 0.21875 0
0.40625 0.25 0
0.4375 0.25 0
0.4375 0.1875 0
0.46875 0.1875 0
0.4375 0.21875 0
0.46875 0.21875 0
0.46875 0.1875 0
0.5 0.1875 0
0.46875 0.21875 0
0.5 0.21875 0
0.4375 0.21875 0
0.46875 0.21875 0
0.4375 0.25 0
0.46875 0.25 0
0.46875 0.21875 0
0.5 0.21875 0
0.46875 0.25 0
0.5 0.25 0
0 0.25 0
0.03125 0.25 0
0 0.28125 0
0.03125 0.28125 0
0.03125 0.25 0
0.0625 0.25 0
0.03125 0.28125 0
0.0625 0.28125 0
0 0.28125 0
0.03125 0.28125 0
0 0.3125 0
0.03125 0.3125 0
0.03125 0.28125 0
0.0625 0.28125 0
0.03125 0.3125 0
0.0625 0.3125 0
0.0625 0.25 0
0.09375 0.25 0
0.0625 0.28125 0
0.09375 0.28125 0
0.09375 0.25 0
0.125 0.25 0
0.09375 0.28125 0
0.125 0.28125 0
0.0625 0.28125 0
0.09375 0.28125 0
0.0625 0.3125 0
0.09375 0.3125 0
0.09375 0.28125 0
0.125 0.28125 0
0.09375 0.3125 0
0.125 0.3125 0
0 0.3125 0
0.03125 0.3125 0
0 0.34375 0
0.03125 0.34375 0
0.03125 0.3125 0
0.0625 0.3125 0
0.03125 0.34375 0
0.0625 0.34375 0
0 0.34375 0
0.03125 0.34375 0
0 0.375 0
0.03125 0.375 0
0.03125 0.34375 0
0.0625 0.34375 0
0.03125 0.375 0
0.0625 0.375 0
0.0625 0.3125 0
0.09375 0.3125 0
0.0625 0.34375 0
0.09375 0.34375 0
0.09375 0.3125 0
0.125 0.3125 0
0.09375 0.34375 0
0.125 0.34375 0
0.0625 0.34375 0
0.09375 0.34375 0
0.0625 0.375 0
0.09375 0.375 0
0.09375 0.34375 0
0.125 0.34375 0
0.09375 0.375 0
0.125 0.375 0
0.125 0.25 0
0.15625 0.25 0
0.125 0.28125 0
0.15625 0.28125 0
0.15625 0.25 0
0.1875 0.25 0
0.15625 0.28125 0
0.1875 0.28125 0
0.125 0.28125 0
0.15625 0.28125 0
0.125 0.3125 0
0.15625 0.3125 0
0.15625 0.28125 0
0.1875 0.28125 0
0.15625 0.3125 0
0.1875 0.3125 0
0.1875 0.25 0
0.21875 0.25 0
0.1875 0.28125 0
0.21875 0.28125 0
0.21875 0.25 0
0.25 0.25 0
0.21875 0.28125 0
0.25 0.28125 0
0.1875 0.28125 0
0.21875 0.28125 0
0.1875 0.3125 0
0.21875 0.3125 0
0.21875 0.28125 0
0.25 0.28125 0
0.21875 0.3125 0
0.25 0.3125 0
0.125 0.3125 0
0.15625 0.3125 0
0.125 0.34375 0
0.15625 0.34375 0
0.15625 0.3125 0
0.1875 0.3125 0
0.15625 0.34375 0
0.1875 0.34375 0
0.125 0.34375 0
[...]
POINT_DATA 4096
SCALARS p double 1
LOOKUP_TABLE default
-1.72809e-05 6.69553e-05 -0.000119071 -2.56485e-05 6.69553e-05 0.000308015 -2.56485e-05 0.000101018 -0.000119071 -2.56485e-05 -0.000369264 -0.000158316 -2.56485e-05 0.000101018 -0.000158316 -2.76605e-05 0.000308015 0.000541902 0.000101018 0.000224273 0.000541902 0.000675725 0.000224273 0.000283796 0.000101018 0.000224273 -2.76605e-05 8.5968e-05 0.000224273 0.000283796 8.5968e-05 0.000124002 -0.000369264 -0.000158316 -0.000617192 -0.000287343 -0.000158316 -2.76605e-05 -0.000287343 -0.000138478 -0.000617192 -0.000287343 -0.00077172 -0.000351015 -0.000287343 -0.000138478 -0.000351015 -0.000168348 -2.76605e-05 8.5968e-05 -0.000138478 -1.99226e-05 8.5968e-05 0.000124002 -1.99226e-05 9.00738e-06 -0.000138478 -1.99226e-05 -0.000168348 -2.9079e-05 -1.99226e-05 9.00738e-06 -2.9079e-05 5.36262e-06 0.000675725 0.000670748 0.000283796 0.000252393 0.000670748 0.000517296 0.000252393 0.000117782 0.000283796 0.000252393 0.000124002 7.11788e-05 0.000252393 0.000117782 7.11788e-05 -8.45301e-05 0.000517296 0.000218304 0.000117782 -0.000122313 0.000218304 -0.000217896 -0.000122313 -0.000465115 0.000117782 -0.000122313 -8.45301e-05 -0.00034658 -0.000122313 -0.000465115 -0.00034658 -0.000713925 0.000124002 7.11788e-05 9.00738e-06 -5.12035e-05 7.11788e-05 -8.45301e-05 -5.12035e-05 -0.000208308 9.00738e-06 -5.12035e-05 5.36262e-06 -5.46142e-05 -5.12035e-05 -0.000208308 -5.46142e-05 -0.0002127 -8.45301e-05 -0.00034658 -0.000208308 -0.000464283 -0.00034658 -0.000713925 -0.000464283 -0.000818506 -0.000208308 -0.000464283 -0.0002127 -0.000468692 -0.000464283 -0.000818506 -0.000468692 -0.000821355 -0.00077172 -0.000351015 -0.000791523 -0.000319281 -0.000351015 -0.000168348 -0.000319281 -9.71527e-05 -0.000791523 -0.000319281 -0.000659855 -0.000173702 -0.000319281 -9.71527e-05 -0.000173702 9.46837e-05 -0.000168348 -2.9079e-05 -9.71527e-05 6.40404e-05 -2.9079e-05 5.36262e-06 6.40404e-05 0.000109611 -9.71527e-05 6.40404e-05 9.46837e-05 0.000275364 6.40404e-05 0.000109611 0.000275364 0.000334147 -0.000659855 -0.000173702 -0.000369302 9.67009e-05 -0.000173702 9.46837e-05 9.67009e-05 0.000420585 -0.000369302 9.67009e-05 8.48575e-05 0.00049998 9.67009e-05 0.000420585 0.00049998 0.000891586 9.46837e-05 0.000275364 0.000420585 0.00061708 0.000275364 0.000334147 0.00061708 0.000689281 0.000420585 0.00061708 0.000891586 0.00110056 0.00061708 0.000689281 0.00110056 0.00118586 5.36262e-06 -5.46142e-05 0.000109611 5.41932e-05 -5.46142e-05 -0.0002127 5.41932e-05 -0.000102535 0.000109611 5.41932e-05 0.000334147 0.000284598 5.41932e-05 -0.000102535 0.000284598 0.00012913 -0.0002127 -0.000468692 -0.000102535 -0.000358487 -0.000468692 -0.000821355 -0.000358487 -0.000711558 -0.000102535 -0.000358487 0.00012913 -0.000128861 -0.000358487 -0.000711558 -0.000128861 -0.000486442 0.000334147 0.000284598 0.000689281 0.000645113 0.000284598 0.00012913 0.000645113 0.000489537 0.000689281 0.000645113 0.00118586 0.00114568 0.000645113 0.000489537 0.00114568 0.000987747 0.00012913 -0.000128861 0.000489537 0.000226744 -0.000128861 -0.000486442 0.000226744 -0.000139651 0.000489537 0.000226744 0.000987747 0.00071671 0.000226744 -0.000139651 0.00071671 0.000336721 -0.000217896 -0.000781137 -0.000465115 -0.00090517 -0.000781137 -0.00146077 -0.00090517 -0.00143563 -0.000465115 -0.00090517 -0.000713925 -0.00118245 -0.00090517 -0.00143563 -0.00118245 -0.00174612 -0.00146077 -0.00224587 -0.00143563 -0.0020487 -0.00224587 -0.00312508 -0.0020487 -0.00273575 -0.00143563 -0.0020487 -0.00174612 -0.00239745 -0.0020487 -0.00273575 -0.00239745 -0.00312774 -0.000713925 -0.00118245 -0.000818506 -0.00126792 -0.00118245 -0.00174612 -0.00126792 -0.00180767 -0.000818506 -0.00126792 -0.000821355 -0.00126781 -0.00126792 -0.00180767 -0.00126781 -0.0018037 -0.00174612 -0.00239745 -0.00180767 -0.00243136 -0.00239745 -0.00312774 -0.00243136 -0.00313117 -0.00180767 -0.00243136 -0.0018037 -0.0024232 -0.00243136 -0.00313117 -0.0024232 -0.00311904 -0.00312508 -0.0040862 -0.00273575 -0.00348721 -0.0040862 -0.00511584 -0.00348721 -0.0042925 -0.00273575 -0.00348721 -0.00312774 -0.003927 -0.00348721 -0.0042925 -0.003927 -0.004784 -0.00511584 -0.00619925 -0.0042925 -0.00513985 -0.00619925 -0.00732023 -0.00513985 -0.00601637 -0.0042925 -0.00513985 -0.004784 -0.00568621 -0.00513985 -0.00601637 -0.00568621 -0.00661978 -0.00312774 -0.003927 -0.00313117 -0.0038979 -0.003927 -0.004784 -0.0038979 -0.00472098 -0.00313117 -0.0038979 -0.00311904 -0.00388247 -0.0038979 -0.00472098 -0.00388247 -0.0047033 -0.004784 -0.00568621 -0.00472098 -0.00558849 -0.00568621 -0.00661978 -0.00558849 -0.00648714 -0.00472098 -0.00558849 -0.0047033 -0.00556985 -0.00558849 -0.00648714 -0.00556985 -0.00646899 -0.000821355 -0.00126781 -0.000711558 -0.0011587 -0.00126781 -0.0018037 -0.0011587 -0.00169578 -0.000711558 -0.0011587 -0.000486442 -0.000940295 -0.0011587 -0.00169578 -0.000940295 -0.00148629 -0.0018037 -0.0024232 -0.00169578 -0.00231733 -0.0024232 -0.00311904 -0.00231733 -0.00301652 -0.00169578 -0.00231733 -0.00148629 -0.00211921 -0.00231733 -0.00301652 -0.00211921 -0.00283252 -0.000486442 -0.000940295 -0.000139651 -0.000606074 -0.000940295 -0.00148629 -0.000606074 -0.00116838 -0.000139651 -0.000606074 0.000336721 -0.000148436 -0.000606074 -0.00116838 -0.000148436 -0.000734602 -0.00148629 -0.00211921 -0.00116838 -0.0018215 -0.00211921 -0.00283252 -0.0018215 -0.0025591 -0.00116838 -0.0018215 -0.000734602 -0.00141684 -0.0018215 -0.0025591 -0.00141684 -0.00218902 -0.00311904 -0.00388247 -0.00301652 -0.00378502 -0.00388247 -0.0047033 -0.00378502 -0.00461292 -0.00301652 -0.00378502 -0.00283252 -0.00361816 -0.00378502 -0.00461292 -0.00361816 -0.00446648 -0.0047033 -0.00556985 -0.00461292 -0.00548875 -0.00556985 -0.00646899 -0.00548875 -0.00639949 -0.00461292 -0.00548875 -0.00446648 -0.00536609 -0.00548875 -0.00639949 -0.00536609 -0.00630392 -0.00283252 -0.00361816 -0.0025591 -0.00337338 -0.00361816 -0.00446648 -0.00337338 -0.00425484 -0.0025591 -0.00337338 -0.00218902 -0.00304355 -0.00337338 -0.00425484 -0.00304355 -0.00397107 -0.00446648 -0.00536609 -0.00425484 -0.00519213 -0.00536609 -0.00630392 -0.00519213 -0.00617204 -0.00425484 -0.00519213 -0.00397107 -0.00496024 -0.00519213 -0.00617204 -0.00496024 -0.00599766 8.48575e-05 0.00049998 0.000708158 0.00104383 0.00049998 0.000891586 0.00104383 0.00151822 0.000708158 0.00104383 0.00150862 0.00173712 0.00104383 0.00151822 0.00173712 0.00231193 0.000891586 0.00110056 0.00151822 0.00173712 0.00110056 0.00118586 0.00173712 0.00183527 0.00151822 0.00173712 0.00231193 0.00253904 0.00173712 0.00183527 0.00253904 0.0026502 0.00150862 0.00173712 0.00249748 0.00259078 0.00173712 0.00231193 0.00259078 0.00328615 0.00249748 0.00259078 0.00368952 0.00361837 0.00259078 0.00328615 0.00361837 0.004457 0.00231193 0.00253904 0.00328615 0.00352046 0.00253904 0.0026502 0.00352046 0.00364528 0.00328615 0.00352046 0.004457 0.00469807 0.00352046 0.00364528 0.00469807 0.0048377 0.00118586 0.00114568 0.00183527 0.00179733 0.00114568 0.000987747 0.00179733 0.00163436 0.00183527 0.00179733 0.0026502 0.00261278 0.00179733 0.00163436 0.00261278 0.00244198 0.000987747 0.00071671 0.00163436 0.00135125 0.00071671 0.000336721 0.00135125 0.000952658 0.00163436 0.00135125 0.00244198 0.00214284 0.00135125 0.000952658 0.00214284 0.00172057 0.0026502 0.00261278 0.00364528 0.00360683 0.00261278 0.00244198 0.00360683 0.00342542 0.00364528 0.00360683 0.0048377 0.00479688 0.00360683 0.00342542 0.00479688 0.00460223 0.00244198 0.00214284 0.00342542 0.00310633 0.00214284 0.00172057 0.00310633 0.00265542 0.00342542 0.00310633 0.00460223 0.00425937 0.00310633 0.00265542 0.00425937 0.00377501 0.00368952 0.00361837 0.00510326 0.00483651 0.00361837 0.004457 0.00483651 0.00584393 0.00510326 0.00483651 0.00676123 0.00626538 0.00483651 0.00584393 0.00626538 0.00747044 0.004457 0.00469807 0.00584393 0.00609182 0.00469807 0.0048377 0.00609182 0.00624784 0.00584393 0.00609182 0.00747044 0.00772556 0.00609182 0.00624784 0.00772556 0.00789987 0.00676123 0.00626538 0.00869046 0.00792933 0.00626538 0.00747044 0.00792933 0.00936486 0.00869046 0.00792933 0.0109232 0.00985787 0.00792933 0.00936486 0.00985787 0.0115616 0.00747044 0.00772556 0.00936486 0.00962796 0.00772556 0.00789987 0.00962796 0.00982259 0.00936486 0.00962796 0.0115616 0.0118336 0.00962796 0.00982259 0.0118336 0.0120505 0.0048377 0.00479688 0.00624784 0.00620342 0.00479688 0.00460223 0.00620342 0.00599291 0.00624784 0.00620342 0.00789987 0.00785059 0.00620342 0.00599291 0.00785059 0.00762148 0.00460223 0.00425937 0.00599291 0.00562254 0.00425937 0.00377501 0.00562254 0.00510013 0.00599291 0.00562254 0.00762148 0.0072198 0.00562254 0.00510013 0.0072198 0.00665484 0.00789987 0.00785059 0.00982259 0.00976686 0.00785059 0.00762148 0.00976686 0.009516 0.00982259 0.00976686 0.0120505 0.0119859 0.00976686 0.009516 0.0119859 0.0117091 0.00762148 0.0072198 0.009516 0.00907884 0.0072198 0.00665484 0.00907884 0.00846666 0.009516 0.00907884 0.0117091 0.0112314 0.00907884 0.00846666 0.0112314 0.0105668 0.000336721 -0.000148436 0.000952658 0.00044252 -0.000148436 -0.000734602 0.00044252 -0.000175019 0.000952658 0.00044252 0.00172057 0.00117926 0.00044252 -0.000175019 0.00117926 0.000522992 -0.000734602 -0.00141684 -0.000175019 -0.000895178 -0.00141684 -0.00218902 -0.000895178 -0.00171207 -0.000175019 -0.000895178 0.000522992 -0.000243681 -0.000895178 -0.00171207 -0.000243681 -0.00111517 0.00172057 0.00117926 0.00265542 0.00207693 0.00117926 0.000522992 0.00207693 0.00137487 0.00265542 0.00207693 0.00377501 0.00315366 0.00207693 0.00137487 0.00315366 0.00239916 0.000522992 -0.000243681 0.00137487 0.000553457 -0.000243681 -0.00111517 0.000553457 -0.000382101 0.00137487 0.000553457 0.00239916 0.00151536 0.000553457 -0.000382101 0.00151536 0.000506881 -0.00218902 -0.00304355 -0.00171207 -0.00261834 -0.00304355 -0.00397107 -0.00261834 -0.00360481 -0.00171207 -0.00261834 -0.00111517 -0.00208447 -0.00261834 -0.00360481 -0.00208447 -0.00314265 -0.00397107 -0.00496024 -0.00360481 -0.00466018 -0.00496024 -0.00599766 -0.00466018 -0.00577084 -0.00360481 -0.00466018 -0.00314265 -0.00427856 -0.00466018 -0.00577084 -0.00427856 -0.00547848 -0.00111517 -0.00208447 -0.000382101 -0.00142527 -0.00208447 -0.00314265 -0.00142527 -0.00256758 -0.000382101 -0.00142527 0.000506881 -0.000620379 -0.00142527 -0.00256758 -0.000620379 -0.00185864 -0.00314265 -0.00427856 -0.00256758 -0.00379821 -0.00427856 -0.00547848 -0.00379821 -0.00510353 -0.00256758 -0.00379821 -0.00185864 -0.00319773 -0.00379821 -0.00510353 -0.00319773 -0.00462439 0.00377501 0.00315366 0.00510013 0.00443054 0.00315366 0.00239916 0.00443054 0.00361747 0.00510013 0.00443054 0.00665484 0.00593195 0.00443054 0.00361747 0.00593195 0.00505474 0.00239916 0.00151536 0.00361747 0.00266431 0.00151536 0.000506881 0.00266431 0.00157493 0.00361747 0.00266431 0.00505474 0.00402606 0.00266431 0.00157493 0.00402606 0.00284886 0.00665484 0.00593195 0.00846666 0.00768554 0.00593195 0.00505474 0.00768554 0.00673909 0.00846666 0.00768554 0.0105668 0.00972231 0.00768554 0.00673909 0.00972231 0.00870175 0.00505474 0.00402606 0.00673909 0.00562956 0.00402606 0.00284886 0.00562956 0.00435883 0.00673909 0.00562956 0.00870175 0.00750678 0.00562956 0.00435883 0.00750678 0.00613815 0.000506881 -0.000620379 0.00157493 0.000354324 -0.000620379 -0.00185864 0.000354324 -0.000990724 0.00157493 0.000354324 0.00284886 0.00152695 0.000354324 -0.000990724 0.00152695 6.57581e-05 -0.00185864 -0.00319773 -0.000990724 -0.00245104 -0.00319773 -0.00462439 -0.00245104 -0.00401426 -0.000990724 -0.00245104 6.57581e-05 -0.00152702 -0.00245104 -0.00401426 -0.00152702 -0.00324057 0.00284886 0.00152695 0.00435883 0.00292932 0.00152695 6.57581e-05 0.00292932 0.00134468 0.00435883 0.00292932 0.00613815 0.00459668 0.00292932 0.00134468 0.00459668 0.00288387 6.57581e-05 -0.00152702 0.00134468 -0.000389456 -0.00152702 -0.00324057 -0.000389456 -0.00226458 0.00134468 -0.000389456 0.00288387 0.00100273 -0.000389456 -0.00226458 0.00100273 -0.00104141 -0.00732023 -0.00846106 -0.00601637 -0.00690798 -0.00846106 -0.0096027 -0.00690798 -0.00779958 -0.00601637 -0.00690798 -0.00661978 -0.00756959 -0.00690798 -0.00779958 -0.00756959 -0.0085194 -0.0096027 -0.0107249 -0.00779958 -0.00867517 -0.0107249 -0.0118063 -0.00867517 -0.00951805 -0.00779958 -0.00867517 -0.0085194 -0.00945202 -0.00867517 -0.00951805 -0.00945202 -0.0103496 -0.00661978 -0.00756959 -0.00648714 -0.00740236 -0.00756959 -0.0085194 -0.00740236 -0.0083184 -0.00648714 -0.00740236 -0.00646899 -0.00738619 -0.00740236 -0.0083184 -0.00738619 -0.00830567 -0.0085194 -0.00945202 -0.0083184 -0.00921857 -0.00945202 -0.0103496 -0.00921857 -0.0100855 -0.0083184 -0.00921857 -0.00830567 -0.00921056 -0.00921857 -0.0100855 -0.00921056 -0.0100833 -0.0118063 -0.0128253 -0.00951805 -0.0103112 -0.0128253 -0.0137595 -0.0103112 -0.0110374 -0.00951805 -0.0103112 -0.0103496 -0.0111939 -0.0103112 -0.0110374 -0.0111939 -0.0119669 -0.0137595 -0.014587 -0.0110374 -0.0116802 -0.014587 -0.0152864 -0.0116802 -0.012224 -0.0110374 -0.0116802 -0.0119669 -0.0126514 -0.0116802 -0.012224 -0.0126514 -0.0132315 -0.0103496 -0.0111939 -0.0100855 -0.0109015 -0.0111939 -0.0119669 -0.0109015 -0.0116491 -0.0100855 -0.0109015 -0.0100833 -0.0109058 -0.0109015 -0.0116491 -0.0109058 -0.0116604 -0.0119669 -0.0126514 -0.0116491 -0.0123118 -0.0126514 -0.0132315 -0.0123118 -0.0128746 -0.0116491 -0.0123118 -0.0116604 -0.0123302 -0.0123118 -0.0128746 -0.0123302 -0.0128999 -0.00646899 -0.00738619 -0.00639949 -0.00733053 -0.00738619 -0.00830567 -0.00733053 -0.00826591 -0.00639949 -0.00733053 -0.00630392 -0.00726518 -0.00733053 -0.00826591 -0.00726518 -0.00823344 -0.00830567 -0.00921056 -0.00826591 -0.0091884 -0.00921056 -0.0100833 -0.0091884 -0.0100799 -0.00826591 -0.0091884 -0.00823344 -0.00919082 -0.0091884 -0.0100799 -0.00919082 -0.0101183 -0.00630392 -0.00726518 -0.00617204 -0.00717943 -0.00726518 -0.00823344 -0.00717943 -0.00819725 -0.00617204 -0.00717943 -0.00599766 -0.00706772 -0.00717943 -0.00819725 -0.00706772 -0.00815258 -0.00823344 -0.00919082 -0.00819725 -0.00920666 -0.00919082 -0.0101183 -0.00920666 -0.0101875 -0.00819725 -0.00920666 -0.00815258 -0.00923226 -0.00920666 -0.0101875 -0.00923226 -0.0102849 -0.0100833 -0.0109058 -0.0100799 -0.0109217 -0.0109058 -0.0116604 -0.0109217 -0.0116953 -0.0100799 -0.0109217 -0.0101183 -0.0109962 -0.0109217 -0.0116953 -0.0109962 -0.0118046 -0.0116604 -0.0123302 -0.0116953 -0.0123829 -0.0123302 -0.0128999 -0.0123829 -0.0129684 -0.0116953 -0.0123829 -0.0118046 -0.0125242 -0.0123829 -0.0129684 -0.0125242 -0.0131376 -0.0101183 -0.0109962 -0.0101875 -0.0111183 -0.0109962 -0.0118046 -0.0111183 -0.0119776 -0.0101875 -0.0111183 -0.0102849 -0.0112872 -0.0111183 -0.0119776 -0.0112872 -0.0122151 -0.0118046 -0.0125242 -0.0119776 -0.0127439 -0.0125242 -0.0131376 -0.0127439 -0.0133977 -0.0119776 -0.0127439 -0.0122151 -0.0130445 -0.0127439 -0.0133977 -0.0130445 -0.0137531 -0.0152864 -0.0158379 -0.012224 -0.0126552 -0.0158379 -0.0162245 -0.0126552 -0.012964 -0.012224 -0.0126552 -0.0132315 -0.0136941 -0.0126552 -0.012964 -0.0136941 -0.0140303 -0.0162245 -0.016436 -0.012964 -0.0131429 -0.016436 -0.0164633 -0.0131429 -0.0132084 -0.012964 -0.0131429 -0.0140303 -0.0142347 -0.0131429 -0.0132084 -0.0142347 -0.0143222 -0.0132315 -0.0136941 -0.0128746 -0.0133253 -0.0136941 -0.0140303 -0.0133253 -0.0136557 -0.0128746 -0.0133253 -0.0128999 -0.0133569 -0.0133253 -0.0136557 -0.0133569 -0.0136928 -0.0140303 -0.0142347 -0.0136557 -0.0138608 -0.0142347 -0.0143222 -0.0138608 -0.0139546 -0.0136557 -0.0138608 -0.0136928 -0.0139013 -0.0138608 -0.0139546 -0.0139013 -0.0139945 -0.0164633 -0.0163582 -0.0132084 -0.0131065 -0.0163582 -0.0161101 -0.0131065 -0.0132363 -0.0132084 -0.0131065 -0.0143222 -0.0142484 -0.0131065 -0.0132363 -0.0142484 -0.014371 -0.0161101 -0.0150941 -0.0132363 -0.0118137 -0.0150941 -0.0164322 -0.0118137 -0.014895 -0.0132363 -0.0118137 -0.014371 -0.0129605 -0.0118137 -0.014895 -0.0129605 -0.015389 -0.0143222 -0.0142484 -0.0139546 -0.0138857 -0.0142484 -0.014371 -0.0138857 -0.0140132 -0.0139546 -0.0138857 -0.0139945 -0.0139184 -0.0138857 -0.0140132 -0.0139184 -0.014019 -0.014371 -0.0129605 -0.0140132 -0.012565 -0.0129605 -0.015389 -0.012565 -0.0151293 -0.0140132 -0.012565 -0.014019 -0.01254 -0.012565 -0.0151293 -0.01254 -0.0149351 -0.0128999 -0.0133569 -0.0129684 -0.0134383 -0.0133569 -0.0136928 -0.0134383 -0.0137829 -0.0129684 -0.0134383 -0.0131376 -0.0136295 -0.0134383 -0.0137829 -0.0136295 -0.0139889 -0.0136928 -0.0139013 -0.0137829 -0.0139948 -0.0139013 -0.0139945 -0.0139948 -0.0140841 -0.0137829 -0.0139948 -0.0139889 -0.0142069 -0.0139948 -0.0140841 -0.0142069 -0.0142923 -0.0131376 -0.0136295 -0.0133977 -0.0139217 -0.0136295 -0.0139889 -0.0139217 -0.0143031 -0.0133977 -0.0139217 -0.0137531 -0.014321 -0.0139217 -0.0143031 -0.014321 -0.0147331 -0.0139889 -0.0142069 -0.0143031 -0.0145314 -0.0142069 -0.0142923 -0.0145314 -0.0146146 -0.0143031 -0.0145314 -0.0147331 -0.0149773 -0.0145314 -0.0146146 -0.0149773 -0.0150613 -0.0139945 -0.0139184 -0.0140841 -0.0139941 -0.0139184 -0.014019 -0.0139941 -0.0140684 -0.0140841 -0.0139941 -0.0142923 -0.0141867 -0.0139941 -0.0140684 -0.0141867 -0.0142358 -0.014019 -0.01254 -0.0140684 -0.0125456 -0.01254 -0.0149351 -0.0125456 -0.0148994 -0.0140684 -0.0125456 -0.0142358 -0.0126653 -0.0125456 -0.0148994 -0.0126653 -0.0149945 -0.0142923 -0.0141867 -0.0146146 -0.0144933 -0.0141867 -0.0142358 -0.0144933 -0.01452 -0.0146146 -0.0144933 -0.0150613 -0.0149246 -0.0144933 -0.01452 -0.0149246 -0.0149306 -0.0142358 -0.0126653 -0.01452 -0.0128924 -0.0126653 -0.0149945 -0.0128924 -0.0152285 -0.01452 -0.0128924 -0.0149306 -0.0132335 -0.0128924 -0.0152285 -0.0132335 -0.0155995 -0.00599766 -0.00706772 -0.00577084 -0.00692068 -0.00706772 -0.00815258 -0.00692068 -0.00809097 -0.00577084 -0.00692068 -0.00547848 -0.00672585 -0.00692068 -0.00809097 -0.00672585 -0.008001 -0.00815258 -0.00923226 -0.00809097 -0.00926036 -0.00923226 -0.0102849 -0.00926036 -0.010405 -0.00809097 -0.00926036 -0.008001 -0.00928104 -0.00926036 -0.010405 -0.00928104 -0.0105399 -0.00547848 -0.00672585 -0.00510353 -0.00646667 -0.00672585 -0.008001 -0.00646667 -0.00786714 -0.00510353 -0.00646667 -0.00462439 -0.00612179 -0.00646667 -0.00786714 -0.00612179 -0.00766889 -0.008001 -0.00928104 -0.00786714 -0.00928049 -0.00928104 -0.0105399 -0.00928049 -0.0106782 -0.00786714 -0.00928049 -0.00766889 -0.00923983 -0.00928049 -0.0106782 -0.00923983 -0.0108035 -0.0102849 -0.0112872 -0.010405 -0.0114992 -0.0112872 -0.0122151 -0.0114992 -0.0125156 -0.010405 -0.0114992 -0.0105399 -0.0117489 -0.0114992 -0.0125156 -0.0117489 -0.0128768 -0.0122151 -0.0130445 -0.0125156 -0.013427 -0.0130445 -0.0137531 -0.013427 -0.0142072 -0.0125156 -0.013427 -0.0128768 -0.0138921 -0.013427 -0.0142072 -0.0138921 -0.014764 -0.0105399 -0.0117489 -0.0106782 -0.0120279 -0.0117489 -0.0128768 -0.0120279 -0.0132941 -0.0106782 -0.0120279 -0.0108035 -0.0123237 -0.0120279 -0.0132941 -0.0123237 -0.0137594 -0.0128768 -0.0138921 -0.0132941 -0.0144396 -0.0138921 -0.014764 -0.0144396 -0.0154275 -0.0132941 -0.0144396 -0.0137594 -0.0150666 -0.0144396 -0.0154275 -0.0150666 -0.0162008 -0.00462439 -0.00612179 -0.00401426 -0.00566413 -0.00612179 -0.00766889 -0.00566413 -0.00737955 -0.00401426 -0.00566413 -0.00324057 -0.00505996 -0.00566413 -0.00737955 -0.00505996 -0.00696488 -0.00766889 -0.00923983 -0.00737955 -0.00913367 -0.00923983 -0.0108035 -0.00913367 -0.0108931 -0.00737955 -0.00913367 -0.00696488 -0.00892831 -0.00913367 -0.0108931 -0.00892831 -0.0109151 -0.00324057 -0.00505996 -0.00226458 -0.00426811 -0.00505996 -0.00696488 -0.00426811 -0.00638177 -0.00226458 -0.00426811 -0.00104141 -0.00323954 -0.00426811 -0.00638177 -0.00323954 -0.00557709 -0.00696488 -0.00892831 -0.00638177 -0.00857973 -0.00892831 -0.0109151 -0.00857973 -0.0108264 -0.00638177 -0.00857973 -0.00557709 -0.00803148 -0.00857973 -0.0108264 -0.00803148 -0.0105688 -0.0108035 -0.0123237 -0.0108931 -0.0126173 -0.0123237 -0.0137594 -0.012617