# vtk DataFile Version 3.0
#This file was generated by the deal.II library on 2026/1/5 at 14:19:35
ASCII
DATASET UNSTRUCTURED_GRID

POINTS 4096 double
0 0 0
0.03125 0 0
0 0.03125 0
0.03125 0.03125 0
0.03125 0 0
0.0625 0 0
0.03125 0.03125 0
0.0625 0.03125 0
0 0.03125 0
0.03125 0.03125 0
0 0.0625 0
0.03125 0.0625 0
0.03125 0.03125 0
0.0625 0.03125 0
0.03125 0.0625 0
0.0625 0.0625 0
0.0625 0 0
0.09375 0 0
0.0625 0.03125 0
0.09375 0.03125 0
0.09375 0 0
0.125 0 0
0.09375 0.03125 0
0.125 0.03125 0
0.0625 0.03125 0
0.09375 0.03125 0
0.0625 0.0625 0
0.09375 0.0625 0
0.09375 0.03125 0
0.125 0.03125 0
0.09375 0.0625 0
0.125 0.0625 0
0 0.0625 0
0.03125 0.0625 0
0 0.09375 0
0.03125 0.09375 0
0.03125 0.0625 0
0.0625 0.0625 0
0.03125 0.09375 0
0.0625 0.09375 0
0 0.09375 0
0.03125 0.09375 0
0 0.125 0
0.03125 0.125 0
0.03125 0.09375 0
0.0625 0.09375 0
0.03125 0.125 0
0.0625 0.125 0
0.0625 0.0625 0
0.09375 0.0625 0
0.0625 0.09375 0
0.09375 0.09375 0
0.09375 0.0625 0
0.125 0.0625 0
0.09375 0.09375 0
0.125 0.09375 0
0.0625 0.09375 0
0.09375 0.09375 0
0.0625 0.125 0
0.09375 0.125 0
0.09375 0.09375 0
0.125 0.09375 0
0.09375 0.125 0
0.125 0.125 0
0.125 0 0
0.15625 0 0
0.125 0.03125 0
0.15625 0.03125 0
0.15625 0 0
0.1875 0 0
0.15625 0.03125 0
0.1875 0.03125 0
0.125 0.03125 0
0.15625 0.03125 0
0.125 0.0625 0
0.15625 0.0625 0
0.15625 0.03125 0
0.1875 0.03125 0
0.15625 0.0625 0
0.1875 0.0625 0
0.1875 0 0
0.21875 0 0
0.1875 0.03125 0
0.21875 0.03125 0
0.21875 0 0
0.25 0 0
0.21875 0.03125 0
0.25 0.03125 0
0.1875 0.03125 0
0.21875 0.03125 0
0.1875 0.0625 0
0.21875 0.0625 0
0.21875 0.03125 0
0.25 0.03125 0
0.21875 0.0625 0
0.25 0.0625 0
0.125 0.0625 0
0.15625 0.0625 0
0.125 0.09375 0
0.15625 0.09375 0
0.15625 0.0625 0
0.1875 0.0625 0
0.15625 0.09375 0
0.1875 0.09375 0
0.125 0.09375 0
0.15625 0.09375 0
0.125 0.125 0
0.15625 0.125 0
0.15625 0.09375 0
0.1875 0.09375 0
0.15625 0.125 0
0.1875 0.125 0
0.1875 0.0625 0
0.21875 0.0625 0
0.1875 0.09375 0
0.21875 0.09375 0
0.21875 0.0625 0
0.25 0.0625 0
0.21875 0.09375 0
0.25 0.09375 0
0.1875 0.09375 0
0.21875 0.09375 0
0.1875 0.125 0
0.21875 0.125 0
0.21875 0.09375 0
0.25 0.09375 0
0.21875 0.125 0
0.25 0.125 0
0 0.125 0
0.03125 0.125 0
0 0.15625 0
0.03125 0.15625 0
0.03125 0.125 0
0.0625 0.125 0
0.03125 0.15625 0
0.0625 0.15625 0
0 0.15625 0
0.03125 0.15625 0
0 0.1875 0
0.03125 0.1875 0
0.03125 0.15625 0
0.0625 0.15625 0
0.03125 0.1875 0
0.0625 0.1875 0
0.0625 0.125 0
0.09375 0.125 0
0.0625 0.15625 0
0.09375 0.15625 0
0.09375 0.125 0
0.125 0.125 0
0.09375 0.15625 0
0.125 0.15625 0
0.0625 0.15625 0
0.09375 0.15625 0
0.0625 0.1875 0
0.09375 0.1875 0
0.09375 0.15625 0
0.125 0.15625 0
0.09375 0.1875 0
0.125 0.1875 0
0 0.1875 0
0.03125 0.1875 0
0 0.21875 0
0.03125 0.21875 0
0.03125 0.1875 0
0.0625 0.1875 0
0.03125 0.21875 0
0.0625 0.21875 0
0 0.21875 0
0.03125 0.21875 0
0 0.25 0
0.03125 0.25 0
0.03125 0.21875 0
0.0625 0.21875 0
0.03125 0.25 0
0.0625 0.25 0
0.0625 0.1875 0
0.09375 0.1875 0
0.0625 0.21875 0
0.09375 0.21875 0
0.09375 0.1875 0
0.125 0.1875 0
0.09375 0.21875 0
0.125 0.21875 0
0.0625 0.21875 0
0.09375 0.21875 0
0.0625 0.25 0
0.09375 0.25 0
0.09375 0.21875 0
0.125 0.21875 0
0.09375 0.25 0
0.125 0.25 0
0.125 0.125 0
0.15625 0.125 0
0.125 0.15625 0
0.15625 0.15625 0
0.15625 0.125 0
0.1875 0.125 0
0.15625 0.15625 0
0.1875 0.15625 0
0.125 0.15625 0
0.15625 0.15625 0
0.125 0.1875 0
0.15625 0.1875 0
0.15625 0.15625 0
0.1875 0.15625 0
0.15625 0.1875 0
0.1875 0.1875 0
0.1875 0.125 0
0.21875 0.125 0
0.1875 0.15625 0
0.21875 0.15625 0
0.21875 0.125 0
0.25 0.125 0
0.21875 0.15625 0
0.25 0.15625 0
0.1875 0.15625 0
0.21875 0.15625 0
0.1875 0.1875 0
0.21875 0.1875 0
0.21875 0.15625 0
0.25 0.15625 0
0.21875 0.1875 0
0.25 0.1875 0
0.125 0.1875 0
0.15625 0.1875 0
0.125 0.21875 0
0.15625 0.21875 0
0.15625 0.1875 0
0.1875 0.1875 0
0.15625 0.21875 0
0.1875 0.21875 0
0.125 0.21875 0
0.15625 0.21875 0
0.125 0.25 0
0.15625 0.25 0
0.15625 0.21875 0
0.1875 0.21875 0
0.15625 0.25 0
0.1875 0.25 0
0.1875 0.1875 0
0.21875 0.1875 0
0.1875 0.21875 0
0.21875 0.21875 0
0.21875 0.1875 0
0.25 0.1875 0
0.21875 0.21875 0
0.25 0.21875 0
0.1875 0.21875 0
0.21875 0.21875 0
0.1875 0.25 0
0.21875 0.25 0
0.21875 0.21875 0
0.25 0.21875 0
0.21875 0.25 0
0.25 0.25 0
0.25 0 0
0.28125 0 0
0.25 0.03125 0
0.28125 0.03125 0
0.28125 0 0
0.3125 0 0
0.28125 0.03125 0
0.3125 0.03125 0
0.25 0.03125 0
0.28125 0.03125 0
0.25 0.0625 0
0.28125 0.0625 0
0.28125 0.03125 0
0.3125 0.03125 0
0.28125 0.0625 0
0.3125 0.0625 0
0.3125 0 0
0.34375 0 0
0.3125 0.03125 0
0.34375 0.03125 0
0.34375 0 0
0.375 0 0
0.34375 0.03125 0
0.375 0.03125 0
0.3125 0.03125 0
0.34375 0.03125 0
0.3125 0.0625 0
0.34375 0.0625 0
0.34375 0.03125 0
0.375 0.03125 0
0.34375 0.0625 0
0.375 0.0625 0
0.25 0.0625 0
0.28125 0.0625 0
0.25 0.09375 0
0.28125 0.09375 0
0.28125 0.0625 0
0.3125 0.0625 0
0.28125 0.09375 0
0.3125 0.09375 0
0.25 0.09375 0
0.28125 0.09375 0
0.25 0.125 0
0.28125 0.125 0
0.28125 0.09375 0
0.3125 0.09375 0
0.28125 0.125 0
0.3125 0.125 0
0.3125 0.0625 0
0.34375 0.0625 0
0.3125 0.09375 0
0.34375 0.09375 0
0.34375 0.0625 0
0.375 0.0625 0
0.34375 0.09375 0
0.375 0.09375 0
0.3125 0.09375 0
0.34375 0.09375 0
0.3125 0.125 0
0.34375 0.125 0
0.34375 0.09375 0
0.375 0.09375 0
0.34375 0.125 0
0.375 0.125 0
0.375 0 0
0.40625 0 0
0.375 0.03125 0
0.40625 0.03125 0
0.40625 0 0
0.4375 0 0
0.40625 0.03125 0
0.4375 0.03125 0
0.375 0.03125 0
0.40625 0.03125 0
0.375 0.0625 0
0.40625 0.0625 0
0.40625 0.03125 0
0.4375 0.03125 0
0.40625 0.0625 0
0.4375 0.0625 0
0.4375 0 0
0.46875 0 0
0.4375 0.03125 0
0.46875 0.03125 0
0.46875 0 0
0.5 0 0
0.46875 0.03125 0
0.5 0.03125 0
0.4375 0.03125 0
0.46875 0.03125 0
0.4375 0.0625 0
0.46875 0.0625 0
0.46875 0.03125 0
0.5 0.03125 0
0.46875 0.0625 0
0.5 0.0625 0
0.375 0.0625 0
0.40625 0.0625 0
0.375 0.09375 0
0.40625 0.09375 0
0.40625 0.0625 0
0.4375 0.0625 0
0.40625 0.09375 0
0.4375 0.09375 0
0.375 0.09375 0
0.40625 0.09375 0
0.375 0.125 0
0.40625 0.125 0
0.40625 0.09375 0
0.4375 0.09375 0
0.40625 0.125 0
0.4375 0.125 0
0.4375 0.0625 0
0.46875 0.0625 0
0.4375 0.09375 0
0.46875 0.09375 0
0.46875 0.0625 0
0.5 0.0625 0
0.46875 0.09375 0
0.5 0.09375 0
0.4375 0.09375 0
0.46875 0.09375 0
0.4375 0.125 0
0.46875 0.125 0
0.46875 0.09375 0
0.5 0.09375 0
0.46875 0.125 0
0.5 0.125 0
0.25 0.125 0
0.28125 0.125 0
0.25 0.15625 0
0.28125 0.15625 0
0.28125 0.125 0
0.3125 0.125 0
0.28125 0.15625 0
0.3125 0.15625 0
0.25 0.15625 0
0.28125 0.15625 0
0.25 0.1875 0
0.28125 0.1875 0
0.28125 0.15625 0
0.3125 0.15625 0
0.28125 0.1875 0
0.3125 0.1875 0
0.3125 0.125 0
0.34375 0.125 0
0.3125 0.15625 0
0.34375 0.15625 0
0.34375 0.125 0
0.375 0.125 0
0.34375 0.15625 0
0.375 0.15625 0
0.3125 0.15625 0
0.34375 0.15625 0
0.3125 0.1875 0
0.34375 0.1875 0
0.34375 0.15625 0
0.375 0.15625 0
0.34375 0.1875 0
0.375 0.1875 0
0.25 0.1875 0
0.28125 0.1875 0
0.25 0.21875 0
0.28125 0.21875 0
0.28125 0.1875 0
0.3125 0.1875 0
0.28125 0.21875 0
0.3125 0.21875 0
0.25 0.21875 0
0.28125 0.21875 0
0.25 0.25 0
0.28125 0.25 0
0.28125 0.21875 0
0.3125 0.21875 0
0.28125 0.25 0
0.3125 0.25 0
0.3125 0.1875 0
0.34375 0.1875 0
0.3125 0.21875 0
0.34375 0.21875 0
0.34375 0.1875 0
0.375 0.1875 0
0.34375 0.21875 0
0.375 0.21875 0
0.3125 0.21875 0
0.34375 0.21875 0
0.3125 0.25 0
0.34375 0.25 0
0.34375 0.21875 0
0.375 0.21875 0
0.34375 0.25 0
0.375 0.25 0
0.375 0.125 0
0.40625 0.125 0
0.375 0.15625 0
0.40625 0.15625 0
0.40625 0.125 0
0.4375 0.125 0
0.40625 0.15625 0
0.4375 0.15625 0
0.375 0.15625 0
0.40625 0.15625 0
0.375 0.1875 0
0.40625 0.1875 0
0.40625 0.15625 0
0.4375 0.15625 0
0.40625 0.1875 0
0.4375 0.1875 0
0.4375 0.125 0
0.46875 0.125 0
0.4375 0.15625 0
0.46875 0.15625 0
0.46875 0.125 0
0.5 0.125 0
0.46875 0.15625 0
0.5 0.15625 0
0.4375 0.15625 0
0.46875 0.15625 0
0.4375 0.1875 0
0.46875 0.1875 0
0.46875 0.15625 0
0.5 0.15625 0
0.46875 0.1875 0
0.5 0.1875 0
0.375 0.1875 0
0.40625 0.1875 0
0.375 0.21875 0
0.40625 0.21875 0
0.40625 0.1875 0
0.4375 0.1875 0
0.40625 0.21875 0
0.4375 0.21875 0
0.375 0.21875 0
0.40625 0.21875 0
0.375 0.25 0
0.40625 0.25 0
0.40625 0.21875 0
0.4375 0.21875 0
0.40625 0.25 0
0.4375 0.25 0
0.4375 0.1875 0
0.46875 0.1875 0
0.4375 0.21875 0
0.46875 0.21875 0
0.46875 0.1875 0
0.5 0.1875 0
0.46875 0.21875 0
0.5 0.21875 0
0.4375 0.21875 0
0.46875 0.21875 0
0.4375 0.25 0
0.46875 0.25 0
0.46875 0.21875 0
0.5 0.21875 0
0.46875 0.25 0
0.5 0.25 0
0 0.25 0
0.03125 0.25 0
0 0.28125 0
0.03125 0.28125 0
0.03125 0.25 0
0.0625 0.25 0
0.03125 0.28125 0
0.0625 0.28125 0
0 0.28125 0
0.03125 0.28125 0
0 0.3125 0
0.03125 0.3125 0
0.03125 0.28125 0
0.0625 0.28125 0
0.03125 0.3125 0
0.0625 0.3125 0
0.0625 0.25 0
0.09375 0.25 0
0.0625 0.28125 0
0.09375 0.28125 0
0.09375 0.25 0
0.125 0.25 0
0.09375 0.28125 0
0.125 0.28125 0
0.0625 0.28125 0
0.09375 0.28125 0
0.0625 0.3125 0
0.09375 0.3125 0
0.09375 0.28125 0
0.125 0.28125 0
0.09375 0.3125 0
0.125 0.3125 0
0 0.3125 0
0.03125 0.3125 0
0 0.34375 0
0.03125 0.34375 0
0.03125 0.3125 0
0.0625 0.3125 0
0.03125 0.34375 0
0.0625 0.34375 0
0 0.34375 0
0.03125 0.34375 0
0 0.375 0
0.03125 0.375 0
0.03125 0.34375 0
0.0625 0.34375 0
0.03125 0.375 0
0.0625 0.375 0
0.0625 0.3125 0
0.09375 0.3125 0
0.0625 0.34375 0
0.09375 0.34375 0
0.09375 0.3125 0
0.125 0.3125 0
0.09375 0.34375 0
0.125 0.34375 0
0.0625 0.34375 0
0.09375 0.34375 0
0.0625 0.375 0
0.09375 0.375 0
0.09375 0.34375 0
0.125 0.34375 0
0.09375 0.375 0
0.125 0.375 0
0.125 0.25 0
0.15625 0.25 0
0.125 0.28125 0
0.15625 0.28125 0
0.15625 0.25 0
0.1875 0.25 0
0.15625 0.28125 0
0.1875 0.28125 0
0.125 0.28125 0
0.15625 0.28125 0
0.125 0.3125 0
0.15625 0.3125 0
0.15625 0.28125 0
0.1875 0.28125 0
0.15625 0.3125 0
0.1875 0.3125 0
0.1875 0.25 0
0.21875 0.25 0
0.1875 0.28125 0
0.21875 0.28125 0
0.21875 0.25 0
0.25 0.25 0
0.21875 0.28125 0
0.25 0.28125 0
0.1875 0.28125 0
0.21875 0.28125 0
0.1875 0.3125 0
0.21875 0.3125 0
0.21875 0.28125 0
0.25 0.28125 0
0.21875 0.3125 0
0.25 0.3125 0
0.125 0.3125 0
0.15625 0.3125 0
0.125 0.34375 0
0.15625 0.34375 0
0.15625 0.3125 0
0.1875 0.3125 0
0.15625 0.34375 0
0.1875 0.34375 0
0.125 0.34375 0
[...]
POINT_DATA 4096
SCALARS p double 1
LOOKUP_TABLE default
7.85996e-06 9.79844e-05 -7.93218e-05 1.43553e-05 9.79844e-05 0.000342475 1.43553e-05 0.000145097 -7.93218e-05 1.43553e-05 -0.000327033 -0.000118242 1.43553e-05 0.000145097 -0.000118242 1.45664e-05 0.000342475 0.000591911 0.000145097 0.000280487 0.000591911 0.000752024 0.000280487 0.000358939 0.000145097 0.000280487 1.45664e-05 0.000140065 0.000280487 0.000358939 0.000140065 0.000196744 -0.000327033 -0.000118242 -0.000586275 -0.00025467 -0.000118242 1.45664e-05 -0.00025467 -0.000104643 -0.000586275 -0.00025467 -0.000764312 -0.000334042 -0.00025467 -0.000104643 -0.000334042 -0.000150403 1.45664e-05 0.000140065 -0.000104643 2.53429e-05 0.000140065 0.000196744 2.53429e-05 7.15291e-05 -0.000104643 2.53429e-05 -0.000150403 1.35951e-06 2.53429e-05 7.15291e-05 1.35951e-06 5.30492e-05 0.000752024 0.00078099 0.000358939 0.000352023 0.00078099 0.000666203 0.000352023 0.000245988 0.000358939 0.000352023 0.000196744 0.000168232 0.000352023 0.000245988 0.000168232 4.14623e-05 0.000666203 0.000408431 0.000245988 3.72659e-05 0.000408431 1.46336e-05 3.72659e-05 -0.000272307 0.000245988 3.72659e-05 4.14623e-05 -0.000188046 3.72659e-05 -0.000272307 -0.000188046 -0.000520082 0.000196744 0.000168232 7.15291e-05 3.38482e-05 0.000168232 4.14623e-05 3.38482e-05 -9.61619e-05 7.15291e-05 3.38482e-05 5.30492e-05 1.54242e-05 3.38482e-05 -9.61619e-05 1.54242e-05 -0.000115741 4.14623e-05 -0.000188046 -9.61619e-05 -0.00032118 -0.000188046 -0.000520082 -0.00032118 -0.000641175 -9.61619e-05 -0.00032118 -0.000115741 -0.000340689 -0.00032118 -0.000641175 -0.000340689 -0.000658621 -0.000764312 -0.000334042 -0.000816648 -0.000324637 -0.000334042 -0.000150403 -0.000324637 -0.000101539 -0.000816648 -0.000324637 -0.000723404 -0.000206258 -0.000324637 -0.000101539 -0.000206258 6.29592e-05 -0.000150403 1.35951e-06 -0.000101539 7.41273e-05 1.35951e-06 5.30492e-05 7.41273e-05 0.000137642 -0.000101539 7.41273e-05 6.29592e-05 0.00026071 7.41273e-05 0.000137642 0.00026071 0.000338746 -0.000723404 -0.000206258 -0.000474804 3.35039e-05 -0.000206258 6.29592e-05 3.35039e-05 0.000357671 -0.000474804 3.35039e-05 -6.46875e-05 0.000403731 3.35039e-05 0.000357671 0.000403731 0.00079459 6.29592e-05 0.00026071 0.000357671 0.000574092 0.00026071 0.000338746 0.000574092 0.000667273 0.000357671 0.000574092 0.00079459 0.00102642 0.000574092 0.000667273 0.00102642 0.00113468 5.30492e-05 1.54242e-05 0.000137642 0.000105109 1.54242e-05 -0.000115741 0.000105109 -2.41485e-05 0.000137642 0.000105109 0.000338746 0.000313303 0.000105109 -2.41485e-05 0.000313303 0.000186611 -0.000115741 -0.000340689 -2.41485e-05 -0.000248248 -0.000340689 -0.000658621 -0.000248248 -0.000565406 -2.41485e-05 -0.000248248 0.000186611 -3.79384e-05 -0.000248248 -0.000565406 -3.79384e-05 -0.000357652 0.000338746 0.000313303 0.000667273 0.000649011 0.000313303 0.000186611 0.000649011 0.000524145 0.000667273 0.000649011 0.00113468 0.00112267 0.000649011 0.000524145 0.00112267 0.000997998 0.000186611 -3.79384e-05 0.000524145 0.000297089 -3.79384e-05 -0.000357652 0.000297089 -2.87566e-05 0.000524145 0.000297089 0.000997998 0.000765646 0.000297089 -2.87566e-05 0.000765646 0.000429584 1.46336e-05 -0.000505789 -0.000272307 -0.000677948 -0.000505789 -0.0011426 -0.000677948 -0.00117331 -0.000272307 -0.000677948 -0.000520082 -0.000951244 -0.000677948 -0.00117331 -0.000951244 -0.00147614 -0.0011426 -0.00188521 -0.00117331 -0.00175098 -0.00188521 -0.00272249 -0.00175098 -0.00240268 -0.00117331 -0.00175098 -0.00147614 -0.0020878 -0.00175098 -0.00240268 -0.0020878 -0.00277803 -0.000520082 -0.000951244 -0.000641175 -0.00105372 -0.000951244 -0.00147614 -0.00105372 -0.00155461 -0.000641175 -0.00105372 -0.000658621 -0.00106722 -0.00105372 -0.00155461 -0.00106722 -0.00156276 -0.00147614 -0.0020878 -0.00155461 -0.00213803 -0.0020878 -0.00277803 -0.00213803 -0.00279676 -0.00155461 -0.00213803 -0.00156276 -0.00214005 -0.00213803 -0.00279676 -0.00214005 -0.00279251 -0.00272249 -0.00364254 -0.00240268 -0.00311912 -0.00364254 -0.00463228 -0.00311912 -0.00389002 -0.00240268 -0.00311912 -0.00277803 -0.00353721 -0.00311912 -0.00389002 -0.00353721 -0.00435454 -0.00463228 -0.00567724 -0.00389002 -0.00470386 -0.00567724 -0.00676131 -0.00470386 -0.00554784 -0.00389002 -0.00470386 -0.00435454 -0.00521776 -0.00470386 -0.00554784 -0.00521776 -0.00611321 -0.00277803 -0.00353721 -0.00279676 -0.00352208 -0.00353721 -0.00435454 -0.00352208 -0.00430391 -0.00279676 -0.00352208 -0.00279251 -0.00351199 -0.00352208 -0.00430391 -0.00351199 -0.00428889 -0.00435454 -0.00521776 -0.00430391 -0.00513067 -0.00521776 -0.00611321 -0.00513067 -0.00598934 -0.00430391 -0.00513067 -0.00428889 -0.00511194 -0.00513067 -0.00598934 -0.00511194 -0.00596839 -0.000658621 -0.00106722 -0.000565406 -0.000973084 -0.00106722 -0.00156276 -0.000973084 -0.00146779 -0.000565406 -0.000973084 -0.000357652 -0.000769673 -0.000973084 -0.00146779 -0.000769673 -0.00127057 -0.00156276 -0.00214005 -0.00146779 -0.00204475 -0.00214005 -0.00279251 -0.00204475 -0.0026979 -0.00146779 -0.00204475 -0.00127057 -0.00185586 -0.00204475 -0.0026979 -0.00185586 -0.00251987 -0.000357652 -0.000769673 -2.87566e-05 -0.000450279 -0.000769673 -0.00127057 -0.000450279 -0.000964037 -2.87566e-05 -0.000450279 0.000429584 -6.8585e-06 -0.000450279 -0.000964037 -6.8585e-06 -0.000540262 -0.00127057 -0.00185586 -0.000964037 -0.00156579 -0.00185586 -0.00251987 -0.00156579 -0.00225019 -0.000964037 -0.00156579 -0.000540262 -0.00116665 -0.00156579 -0.00225019 -0.00116665 -0.00188099 -0.00279251 -0.00351199 -0.0026979 -0.00341959 -0.00351199 -0.00428889 -0.00341959 -0.00420064 -0.0026979 -0.00341959 -0.00251987 -0.00325534 -0.00341959 -0.00420064 -0.00325534 -0.00405345 -0.00428889 -0.00511194 -0.00420064 -0.00503012 -0.00511194 -0.00596839 -0.00503012 -0.00589541 -0.00420064 -0.00503012 -0.00405345 -0.00490348 -0.00503012 -0.00589541 -0.00490348 -0.00579286 -0.00251987 -0.00325534 -0.00225019 -0.00301039 -0.00325534 -0.00405345 -0.00301039 -0.00383781 -0.00225019 -0.00301039 -0.00188099 -0.00267682 -0.00301039 -0.00383781 -0.00267682 -0.00354586 -0.00405345 -0.00490348 -0.00383781 -0.00472188 -0.00490348 -0.00579286 -0.00472188 -0.00565001 -0.00383781 -0.00472188 -0.00354586 -0.00447765 -0.00472188 -0.00565001 -0.00447765 -0.00545957 -6.46875e-05 0.000403731 0.00051311 0.000912681 0.000403731 0.00079459 0.000912681 0.00138478 0.00051311 0.000912681 0.00126662 0.00156939 0.000912681 0.00138478 0.00156939 0.00213994 0.00079459 0.00102642 0.00138478 0.00162949 0.00102642 0.00113468 0.00162949 0.00175282 0.00138478 0.00162949 0.00213994 0.00239584 0.00162949 0.00175282 0.00239584 0.00253462 0.00126662 0.00156939 0.00220667 0.00238466 0.00156939 0.00213994 0.00238466 0.00307351 0.00220667 0.00238466 0.00334746 0.00337171 0.00238466 0.00307351 0.00337171 0.0042013 0.00213994 0.00239584 0.00307351 0.00333969 0.00239584 0.00253462 0.00333969 0.00349482 0.00307351 0.00333969 0.0042013 0.00447754 0.00333969 0.00349482 0.00447754 0.00465052 0.00113468 0.00112267 0.00175282 0.00174577 0.00112267 0.000997998 0.00174577 0.00161918 0.00175282 0.00174577 0.00253462 0.00253123 0.00174577 0.00161918 0.00253123 0.00240049 0.000997998 0.000765646 0.00161918 0.00137837 0.000765646 0.000429584 0.00137837 0.00102782 0.00161918 0.00137837 0.00240049 0.00214796 0.00137837 0.00102782 0.00214796 0.00177869 0.00253462 0.00253123 0.00349482 0.00349397 0.00253123 0.00240049 0.00349397 0.00335694 0.00349482 0.00349397 0.00465052 0.00465136 0.00349397 0.00335694 0.00465136 0.00450609 0.00240049 0.00214796 0.00335694 0.00308956 0.00214796 0.00177869 0.00308956 0.00269756 0.00335694 0.00308956 0.00450609 0.00422097 0.00308956 0.00269756 0.00422097 0.00380258 0.00334746 0.00337171 0.00470681 0.00454671 0.00337171 0.0042013 0.00454671 0.00554238 0.00470681 0.00454671 0.00630646 0.00592921 0.00454671 0.00554238 0.00592921 0.00711958 0.0042013 0.00447754 0.00554238 0.005829 0.00447754 0.00465052 0.005829 0.0060218 0.00554238 0.005829 0.00711958 0.00741732 0.005829 0.0060218 0.00741732 0.00763232 0.00630646 0.00592921 0.00817255 0.00754288 0.00592921 0.00711958 0.00754288 0.00896049 0.00817255 0.00754288 0.0103365 0.00941647 0.00754288 0.00896049 0.00941647 0.0110986 0.00711958 0.00741732 0.00896049 0.00927049 0.00741732 0.00763232 0.00927049 0.00951027 0.00896049 0.00927049 0.0110986 0.0114222 0.00927049 0.00951027 0.0114222 0.0116892 0.00465052 0.00465136 0.0060218 0.00602374 0.00465136 0.00450609 0.00602374 0.00586845 0.0060218 0.00602374 0.00763232 0.00763486 0.00602374 0.00586845 0.00763486 0.00746786 0.00450609 0.00422097 0.00586845 0.00556295 0.00422097 0.00380258 0.00556295 0.00511492 0.00586845 0.00556295 0.00746786 0.0071395 0.00556295 0.00511492 0.0071395 0.00665896 0.00763232 0.00763486 0.00951027 0.00951265 0.00763486 0.00746786 0.00951265 0.00933197 0.00951027 0.00951265 0.0116892 0.0116899 0.00951265 0.00933197 0.0116899 0.0114927 0.00746786 0.0071395 0.00933197 0.00897816 0.0071395 0.00665896 0.00897816 0.0084624 0.00933197 0.00897816 0.0114927 0.0111102 0.00897816 0.0084624 0.0111102 0.0105563 0.000429584 -6.8585e-06 0.00102782 0.000571035 -6.8585e-06 -0.000540262 0.000571035 1.13263e-05 0.00102782 0.000571035 0.00177869 0.0012963 0.000571035 1.13263e-05 0.0012963 0.000703942 -0.000540262 -0.00116665 1.13263e-05 -0.000647633 -0.00116665 -0.00188099 -0.000647633 -0.0014012 1.13263e-05 -0.000647633 0.000703942 4.88369e-06 -0.000647633 -0.0014012 4.88369e-06 -0.000796735 0.00177869 0.0012963 0.00269756 0.00218464 0.0012963 0.000703942 0.00218464 0.00155377 0.00269756 0.00218464 0.00380258 0.00325478 0.00218464 0.00155377 0.00325478 0.00258024 0.000703942 4.88369e-06 0.00155377 0.000807717 4.88369e-06 -0.000796735 0.000807717 -5.00693e-05 0.00155377 0.000807717 0.00258024 0.00178114 0.000807717 -5.00693e-05 0.00178114 0.000860076 -0.00188099 -0.00267682 -0.0014012 -0.00224332 -0.00267682 -0.00354586 -0.00224332 -0.00316607 -0.0014012 -0.00224332 -0.000796735 -0.00169539 -0.00224332 -0.00316607 -0.00169539 -0.00268367 -0.00354586 -0.00447765 -0.00316607 -0.00415927 -0.00447765 -0.00545957 -0.00415927 -0.00521023 -0.00316607 -0.00415927 -0.00268367 -0.00375176 -0.00415927 -0.00521023 -0.00375176 -0.00488704 -0.000796735 -0.00169539 -5.00693e-05 -0.00101478 -0.00169539 -0.00268367 -0.00101478 -0.00207972 -5.00693e-05 -0.00101478 0.000860076 -0.000179135 -0.00101478 -0.00207972 -0.000179135 -0.00133084 -0.00268367 -0.00375176 -0.00207972 -0.00323571 -0.00375176 -0.00488704 -0.00323571 -0.00447047 -0.00207972 -0.00323571 -0.00133084 -0.00258684 -0.00323571 -0.00447047 -0.00258684 -0.00393561 0.00380258 0.00325478 0.00511492 0.00452848 0.00325478 0.00258024 0.00452848 0.00380599 0.00511492 0.00452848 0.00665896 0.00603078 0.00452848 0.00380599 0.00603078 0.00525701 0.00258024 0.00178114 0.00380599 0.00294892 0.00178114 0.000860076 0.00294892 0.0019588 0.00380599 0.00294892 0.00525701 0.00433833 0.00294892 0.0019588 0.00433833 0.00327499 0.00665896 0.00603078 0.0084624 0.00778987 0.00603078 0.00525701 0.00778987 0.00696245 0.0084624 0.00778987 0.0105563 0.00983701 0.00778987 0.00696245 0.00983701 0.00895429 0.00525701 0.00433833 0.00696245 0.00597991 0.00433833 0.00327499 0.00597991 0.00484109 0.00696245 0.00597991 0.00895429 0.00790699 0.00597991 0.00484109 0.00790699 0.00669242 0.000860076 -0.000179135 0.0019588 0.00083813 -0.000179135 -0.00133084 0.00083813 -0.000408866 0.0019588 0.00083813 0.00327499 0.00206787 0.00083813 -0.000408866 0.00206787 0.000719295 -0.00133084 -0.00258684 -0.000408866 -0.00177546 -0.00258684 -0.00393561 -0.00177546 -0.00325145 -0.000408866 -0.00177546 0.000719295 -0.000766086 -0.00177546 -0.00325145 -0.000766086 -0.00238021 0.00327499 0.00206787 0.00484109 0.00354492 0.00206787 0.000719295 0.00354492 0.00209139 0.00484109 0.00354492 0.00669242 0.0053074 0.00354492 0.00209139 0.0053074 0.00374917 0.000719295 -0.000766086 0.00209139 0.000482405 -0.000766086 -0.00238021 0.000482405 -0.00127706 0.00209139 0.000482405 0.00374917 0.00201623 0.000482405 -0.00127706 0.00201623 0.000109493 -0.00676131 -0.00786672 -0.00554784 -0.00640791 -0.00786672 -0.00897416 -0.00640791 -0.00726876 -0.00554784 -0.00640791 -0.00611321 -0.00702584 -0.00640791 -0.00726876 -0.00702584 -0.00793929 -0.00897416 -0.0100629 -0.00726876 -0.00811413 -0.0100629 -0.0111111 -0.00811413 -0.00892692 -0.00726876 -0.00811413 -0.00793929 -0.00883613 -0.00811413 -0.00892692 -0.00883613 -0.00969815 -0.00611321 -0.00702584 -0.00598934 -0.00686545 -0.00702584 -0.00793929 -0.00686545 -0.00774322 -0.00598934 -0.00686545 -0.00596839 -0.00684386 -0.00686545 -0.00774322 -0.00684386 -0.00772257 -0.00793929 -0.00883613 -0.00774322 -0.00860578 -0.00883613 -0.00969815 -0.00860578 -0.0094355 -0.00774322 -0.00860578 -0.00772257 -0.00858754 -0.00860578 -0.0094355 -0.00858754 -0.00942093 -0.0111111 -0.0120959 -0.00892692 -0.00968952 -0.0120959 -0.0129942 -0.00968952 -0.0103844 -0.00892692 -0.00968952 -0.00969815 -0.0105068 -0.00968952 -0.0103844 -0.0105068 -0.0112435 -0.0129942 -0.0137832 -0.0103844 -0.0109944 -0.0137832 -0.014441 -0.0109944 -0.0115042 -0.0103844 -0.0109944 -0.0112435 -0.0118909 -0.0109944 -0.0115042 -0.0118909 -0.0124333 -0.00969815 -0.0105068 -0.0094355 -0.0102144 -0.0105068 -0.0112435 -0.0102144 -0.0109247 -0.0094355 -0.0102144 -0.00942093 -0.0102045 -0.0102144 -0.0109247 -0.0102045 -0.0109201 -0.0112435 -0.0118909 -0.0109247 -0.0115497 -0.0118909 -0.0124333 -0.0115497 -0.0120747 -0.0109247 -0.0115497 -0.0109201 -0.0115507 -0.0115497 -0.0120747 -0.0115507 -0.0120812 -0.00596839 -0.00684386 -0.00589541 -0.00678215 -0.00684386 -0.00772257 -0.00678215 -0.00767441 -0.00589541 -0.00678215 -0.00579286 -0.00670705 -0.00678215 -0.00767441 -0.00670705 -0.00762976 -0.00772257 -0.00858754 -0.00767441 -0.00855484 -0.00858754 -0.00942093 -0.00855484 -0.00940508 -0.00767441 -0.00855484 -0.00762976 -0.00854298 -0.00855484 -0.00940508 -0.00854298 -0.00942738 -0.00579286 -0.00670705 -0.00565001 -0.00660738 -0.00670705 -0.00762976 -0.00660738 -0.00757712 -0.00565001 -0.00660738 -0.00545957 -0.00647643 -0.00660738 -0.00757712 -0.00647643 -0.00751057 -0.00762976 -0.00854298 -0.00757712 -0.00854023 -0.00854298 -0.00942738 -0.00854023 -0.0094761 -0.00757712 -0.00854023 -0.00751057 -0.00854178 -0.00854023 -0.0094761 -0.00854178 -0.00954773 -0.00942093 -0.0102045 -0.00940508 -0.0102061 -0.0102045 -0.0109201 -0.0102061 -0.0109391 -0.00940508 -0.0102061 -0.00942738 -0.0102628 -0.0102061 -0.0109391 -0.0102628 -0.0110288 -0.0109201 -0.0115507 -0.0109391 -0.0115861 -0.0115507 -0.0120812 -0.0115861 -0.0121309 -0.0109391 -0.0115861 -0.0110288 -0.0117061 -0.0115861 -0.0121309 -0.0117061 -0.0122768 -0.00942738 -0.0102628 -0.0094761 -0.0103628 -0.0102628 -0.0110288 -0.0103628 -0.0111781 -0.0094761 -0.0103628 -0.00954773 -0.0105043 -0.0103628 -0.0111781 -0.0105043 -0.0113866 -0.0110288 -0.0117061 -0.0111781 -0.0119002 -0.0117061 -0.0122768 -0.0119002 -0.0125091 -0.0111781 -0.0119002 -0.0113866 -0.0121699 -0.0119002 -0.0125091 -0.0121699 -0.0128311 -0.014441 -0.014948 -0.0115042 -0.0119003 -0.014948 -0.0152882 -0.0119003 -0.012174 -0.0115042 -0.0119003 -0.0124333 -0.012858 -0.0119003 -0.012174 -0.012858 -0.0131571 -0.0152882 -0.0154539 -0.012174 -0.0123197 -0.0154539 -0.01544 -0.0123197 -0.0123554 -0.012174 -0.0123197 -0.0131571 -0.0133272 -0.0123197 -0.0123554 -0.0133272 -0.0133844 -0.0124333 -0.012858 -0.0120747 -0.012488 -0.012858 -0.0131571 -0.012488 -0.0127823 -0.0120747 -0.012488 -0.0120812 -0.0124997 -0.012488 -0.0127823 -0.0124997 -0.0127983 -0.0131571 -0.0133272 -0.0127823 -0.0129543 -0.0133272 -0.0133844 -0.0129543 -0.0130189 -0.0127823 -0.0129543 -0.0127983 -0.0129727 -0.0129543 -0.0130189 -0.0129727 -0.0130355 -0.01544 -0.0153008 -0.0123554 -0.0122342 -0.0153008 -0.0150339 -0.0122342 -0.0123337 -0.0123554 -0.0122342 -0.0133844 -0.0132909 -0.0122342 -0.0123337 -0.0132909 -0.0133838 -0.0150339 -0.0140642 -0.0123337 -0.0109896 -0.0140642 -0.0153161 -0.0109896 -0.0138749 -0.0123337 -0.0109896 -0.0133838 -0.0120512 -0.0109896 -0.0138749 -0.0120512 -0.0143189 -0.0133844 -0.0132909 -0.0130189 -0.012931 -0.0132909 -0.0133838 -0.012931 -0.0130276 -0.0130189 -0.012931 -0.0130355 -0.0129391 -0.012931 -0.0130276 -0.0129391 -0.0130066 -0.0133838 -0.0120512 -0.0130276 -0.0116592 -0.0120512 -0.0143189 -0.0116592 -0.0140414 -0.0130276 -0.0116592 -0.0130066 -0.0116073 -0.0116592 -0.0140414 -0.0116073 -0.0138164 -0.0120812 -0.0124997 -0.0121309 -0.0125604 -0.0124997 -0.0127983 -0.0125604 -0.012866 -0.0121309 -0.0125604 -0.0122768 -0.0127261 -0.0125604 -0.012866 -0.0127261 -0.0130439 -0.0127983 -0.0129727 -0.012866 -0.0130417 -0.0129727 -0.0130355 -0.0130417 -0.0130983 -0.012866 -0.0130417 -0.0130439 -0.0132227 -0.0130417 -0.0130983 -0.0132227 -0.0132721 -0.0122768 -0.0127261 -0.0125091 -0.0129878 -0.0127261 -0.0130439 -0.0129878 -0.0133242 -0.0125091 -0.0129878 -0.0128311 -0.0133506 -0.0129878 -0.0133242 -0.0133506 -0.0137139 -0.0130439 -0.0132227 -0.0133242 -0.0135095 -0.0132227 -0.0132721 -0.0135095 -0.0135526 -0.0133242 -0.0135095 -0.0137139 -0.0139105 -0.0135095 -0.0135526 -0.0139105 -0.0139494 -0.0130355 -0.0129391 -0.0130983 -0.0129856 -0.0129391 -0.0130066 -0.0129856 -0.0130233 -0.0130983 -0.0129856 -0.0132721 -0.0131404 -0.0129856 -0.0130233 -0.0131404 -0.0131484 -0.0130066 -0.0116073 -0.0130233 -0.0115805 -0.0116073 -0.0138164 -0.0115805 -0.0137356 -0.0130233 -0.0115805 -0.0131484 -0.0116586 -0.0115805 -0.0137356 -0.0116586 -0.0137757 -0.0132721 -0.0131404 -0.0135526 -0.0134011 -0.0131404 -0.0131484 -0.0134011 -0.0133814 -0.0135526 -0.0134011 -0.0139494 -0.0137775 -0.0134011 -0.0133814 -0.0137775 -0.0137311 -0.0131484 -0.0116586 -0.0133814 -0.0118356 -0.0116586 -0.0137757 -0.0118356 -0.0139448 -0.0133814 -0.0118356 -0.0137311 -0.0121178 -0.0118356 -0.0139448 -0.0121178 -0.0142402 -0.00545957 -0.00647643 -0.00521023 -0.00630333 -0.00647643 -0.00751057 -0.00630333 -0.00742007 -0.00521023 -0.00630333 -0.00488704 -0.00607364 -0.00630333 -0.00742007 -0.00607364 -0.00729213 -0.00751057 -0.00854178 -0.00742007 -0.00853883 -0.00854178 -0.00954773 -0.00853883 -0.00963515 -0.00742007 -0.00853883 -0.00729213 -0.00851936 -0.00853883 -0.00963515 -0.00851936 -0.00972847 -0.00488704 -0.00607364 -0.00447047 -0.00576806 -0.00607364 -0.00729213 -0.00576806 -0.00710835 -0.00447047 -0.00576806 -0.00393561 -0.0053616 -0.00576806 -0.00710835 -0.0053616 -0.00684431 -0.00729213 -0.00851936 -0.00710835 -0.00846666 -0.00851936 -0.00972847 -0.00846666 -0.00981343 -0.00710835 -0.00846666 -0.00684431 -0.00835774 -0.00846666 -0.00981343 -0.00835774 -0.00986966 -0.00954773 -0.0105043 -0.00963515 -0.0106822 -0.0105043 -0.0113866 -0.0106822 -0.0116517 -0.00963515 -0.0106822 -0.00972847 -0.0108893 -0.0106822 -0.0116517 -0.0108893 -0.0119694 -0.0113866 -0.0121699 -0.0116517 -0.0125151 -0.0121699 -0.0128311 -0.0125151 -0.0132455 -0.0116517 -0.0125151 -0.0119694 -0.0129355 -0.0125151 -0.0132455 -0.0129355 -0.0137554 -0.00972847 -0.0108893 -0.00981343 -0.0111147 -0.0108893 -0.0119694 -0.0111147 -0.0123329 -0.00981343 -0.0111147 -0.00986966 -0.0113418 -0.0111147 -0.0123329 -0.0113418 -0.0127306 -0.0119694 -0.0129355 -0.0123329 -0.0134286 -0.0129355 -0.0137554 -0.0134286 -0.0143631 -0.0123329 -0.0134286 -0.0127306 -0.013989 -0.0134286 -0.0143631 -0.013989 -0.0150695 -0.00393561 -0.0053616 -0.00325145 -0.00482235 -0.0053616 -0.00684431 -0.00482235 -0.00646799 -0.00325145 -0.00482235 -0.00238021 -0.00411053 -0.00482235 -0.00646799 -0.00411053 -0.00593827 -0.00684431 -0.00835774 -0.00646799 -0.00816158 -0.00835774 -0.00986966 -0.00816158 -0.00986852 -0.00646799 -0.00816158 -0.00593827 -0.00783692 -0.00816158 -0.00986852 -0.00783692 -0.00977037 -0.00238021 -0.00411053 -0.00127706 -0.0031776 -0.00411053 -0.00593827 -0.0031776 -0.00520337 -0.00127706 -0.0031776 0.000109493 -0.00196621 -0.0031776 -0.00520337 -0.00196621 -0.00419994 -0.00593827 -0.00783692 -0.00520337 -0.00732984 -0.00783692 -0.00977037 -0.00732984 -0.00952103 -0.00520337 -0.00732984 -0.00419994 -0.00657163 -0.0073298