# vtk DataFile Version 3.0
#This file was generated by the deal.II library on 2026/1/5 at 14:19:37
ASCII
DATASET UNSTRUCTURED_GRID

POINTS 4096 double
0 0 0
0.03125 0 0
0 0.03125 0
0.03125 0.03125 0
0.03125 0 0
0.0625 0 0
0.03125 0.03125 0
0.0625 0.03125 0
0 0.03125 0
0.03125 0.03125 0
0 0.0625 0
0.03125 0.0625 0
0.03125 0.03125 0
0.0625 0.03125 0
0.03125 0.0625 0
0.0625 0.0625 0
0.0625 0 0
0.09375 0 0
0.0625 0.03125 0
0.09375 0.03125 0
0.09375 0 0
0.125 0 0
0.09375 0.03125 0
0.125 0.03125 0
0.0625 0.03125 0
0.09375 0.03125 0
0.0625 0.0625 0
0.09375 0.0625 0
0.09375 0.03125 0
0.125 0.03125 0
0.09375 0.0625 0
0.125 0.0625 0
0 0.0625 0
0.03125 0.0625 0
0 0.09375 0
0.03125 0.09375 0
0.03125 0.0625 0
0.0625 0.0625 0
0.03125 0.09375 0
0.0625 0.09375 0
0 0.09375 0
0.03125 0.09375 0
0 0.125 0
0.03125 0.125 0
0.03125 0.09375 0
0.0625 0.09375 0
0.03125 0.125 0
0.0625 0.125 0
0.0625 0.0625 0
0.09375 0.0625 0
0.0625 0.09375 0
0.09375 0.09375 0
0.09375 0.0625 0
0.125 0.0625 0
0.09375 0.09375 0
0.125 0.09375 0
0.0625 0.09375 0
0.09375 0.09375 0
0.0625 0.125 0
0.09375 0.125 0
0.09375 0.09375 0
0.125 0.09375 0
0.09375 0.125 0
0.125 0.125 0
0.125 0 0
0.15625 0 0
0.125 0.03125 0
0.15625 0.03125 0
0.15625 0 0
0.1875 0 0
0.15625 0.03125 0
0.1875 0.03125 0
0.125 0.03125 0
0.15625 0.03125 0
0.125 0.0625 0
0.15625 0.0625 0
0.15625 0.03125 0
0.1875 0.03125 0
0.15625 0.0625 0
0.1875 0.0625 0
0.1875 0 0
0.21875 0 0
0.1875 0.03125 0
0.21875 0.03125 0
0.21875 0 0
0.25 0 0
0.21875 0.03125 0
0.25 0.03125 0
0.1875 0.03125 0
0.21875 0.03125 0
0.1875 0.0625 0
0.21875 0.0625 0
0.21875 0.03125 0
0.25 0.03125 0
0.21875 0.0625 0
0.25 0.0625 0
0.125 0.0625 0
0.15625 0.0625 0
0.125 0.09375 0
0.15625 0.09375 0
0.15625 0.0625 0
0.1875 0.0625 0
0.15625 0.09375 0
0.1875 0.09375 0
0.125 0.09375 0
0.15625 0.09375 0
0.125 0.125 0
0.15625 0.125 0
0.15625 0.09375 0
0.1875 0.09375 0
0.15625 0.125 0
0.1875 0.125 0
0.1875 0.0625 0
0.21875 0.0625 0
0.1875 0.09375 0
0.21875 0.09375 0
0.21875 0.0625 0
0.25 0.0625 0
0.21875 0.09375 0
0.25 0.09375 0
0.1875 0.09375 0
0.21875 0.09375 0
0.1875 0.125 0
0.21875 0.125 0
0.21875 0.09375 0
0.25 0.09375 0
0.21875 0.125 0
0.25 0.125 0
0 0.125 0
0.03125 0.125 0
0 0.15625 0
0.03125 0.15625 0
0.03125 0.125 0
0.0625 0.125 0
0.03125 0.15625 0
0.0625 0.15625 0
0 0.15625 0
0.03125 0.15625 0
0 0.1875 0
0.03125 0.1875 0
0.03125 0.15625 0
0.0625 0.15625 0
0.03125 0.1875 0
0.0625 0.1875 0
0.0625 0.125 0
0.09375 0.125 0
0.0625 0.15625 0
0.09375 0.15625 0
0.09375 0.125 0
0.125 0.125 0
0.09375 0.15625 0
0.125 0.15625 0
0.0625 0.15625 0
0.09375 0.15625 0
0.0625 0.1875 0
0.09375 0.1875 0
0.09375 0.15625 0
0.125 0.15625 0
0.09375 0.1875 0
0.125 0.1875 0
0 0.1875 0
0.03125 0.1875 0
0 0.21875 0
0.03125 0.21875 0
0.03125 0.1875 0
0.0625 0.1875 0
0.03125 0.21875 0
0.0625 0.21875 0
0 0.21875 0
0.03125 0.21875 0
0 0.25 0
0.03125 0.25 0
0.03125 0.21875 0
0.0625 0.21875 0
0.03125 0.25 0
0.0625 0.25 0
0.0625 0.1875 0
0.09375 0.1875 0
0.0625 0.21875 0
0.09375 0.21875 0
0.09375 0.1875 0
0.125 0.1875 0
0.09375 0.21875 0
0.125 0.21875 0
0.0625 0.21875 0
0.09375 0.21875 0
0.0625 0.25 0
0.09375 0.25 0
0.09375 0.21875 0
0.125 0.21875 0
0.09375 0.25 0
0.125 0.25 0
0.125 0.125 0
0.15625 0.125 0
0.125 0.15625 0
0.15625 0.15625 0
0.15625 0.125 0
0.1875 0.125 0
0.15625 0.15625 0
0.1875 0.15625 0
0.125 0.15625 0
0.15625 0.15625 0
0.125 0.1875 0
0.15625 0.1875 0
0.15625 0.15625 0
0.1875 0.15625 0
0.15625 0.1875 0
0.1875 0.1875 0
0.1875 0.125 0
0.21875 0.125 0
0.1875 0.15625 0
0.21875 0.15625 0
0.21875 0.125 0
0.25 0.125 0
0.21875 0.15625 0
0.25 0.15625 0
0.1875 0.15625 0
0.21875 0.15625 0
0.1875 0.1875 0
0.21875 0.1875 0
0.21875 0.15625 0
0.25 0.15625 0
0.21875 0.1875 0
0.25 0.1875 0
0.125 0.1875 0
0.15625 0.1875 0
0.125 0.21875 0
0.15625 0.21875 0
0.15625 0.1875 0
0.1875 0.1875 0
0.15625 0.21875 0
0.1875 0.21875 0
0.125 0.21875 0
0.15625 0.21875 0
0.125 0.25 0
0.15625 0.25 0
0.15625 0.21875 0
0.1875 0.21875 0
0.15625 0.25 0
0.1875 0.25 0
0.1875 0.1875 0
0.21875 0.1875 0
0.1875 0.21875 0
0.21875 0.21875 0
0.21875 0.1875 0
0.25 0.1875 0
0.21875 0.21875 0
0.25 0.21875 0
0.1875 0.21875 0
0.21875 0.21875 0
0.1875 0.25 0
0.21875 0.25 0
0.21875 0.21875 0
0.25 0.21875 0
0.21875 0.25 0
0.25 0.25 0
0.25 0 0
0.28125 0 0
0.25 0.03125 0
0.28125 0.03125 0
0.28125 0 0
0.3125 0 0
0.28125 0.03125 0
0.3125 0.03125 0
0.25 0.03125 0
0.28125 0.03125 0
0.25 0.0625 0
0.28125 0.0625 0
0.28125 0.03125 0
0.3125 0.03125 0
0.28125 0.0625 0
0.3125 0.0625 0
0.3125 0 0
0.34375 0 0
0.3125 0.03125 0
0.34375 0.03125 0
0.34375 0 0
0.375 0 0
0.34375 0.03125 0
0.375 0.03125 0
0.3125 0.03125 0
0.34375 0.03125 0
0.3125 0.0625 0
0.34375 0.0625 0
0.34375 0.03125 0
0.375 0.03125 0
0.34375 0.0625 0
0.375 0.0625 0
0.25 0.0625 0
0.28125 0.0625 0
0.25 0.09375 0
0.28125 0.09375 0
0.28125 0.0625 0
0.3125 0.0625 0
0.28125 0.09375 0
0.3125 0.09375 0
0.25 0.09375 0
0.28125 0.09375 0
0.25 0.125 0
0.28125 0.125 0
0.28125 0.09375 0
0.3125 0.09375 0
0.28125 0.125 0
0.3125 0.125 0
0.3125 0.0625 0
0.34375 0.0625 0
0.3125 0.09375 0
0.34375 0.09375 0
0.34375 0.0625 0
0.375 0.0625 0
0.34375 0.09375 0
0.375 0.09375 0
0.3125 0.09375 0
0.34375 0.09375 0
0.3125 0.125 0
0.34375 0.125 0
0.34375 0.09375 0
0.375 0.09375 0
0.34375 0.125 0
0.375 0.125 0
0.375 0 0
0.40625 0 0
0.375 0.03125 0
0.40625 0.03125 0
0.40625 0 0
0.4375 0 0
0.40625 0.03125 0
0.4375 0.03125 0
0.375 0.03125 0
0.40625 0.03125 0
0.375 0.0625 0
0.40625 0.0625 0
0.40625 0.03125 0
0.4375 0.03125 0
0.40625 0.0625 0
0.4375 0.0625 0
0.4375 0 0
0.46875 0 0
0.4375 0.03125 0
0.46875 0.03125 0
0.46875 0 0
0.5 0 0
0.46875 0.03125 0
0.5 0.03125 0
0.4375 0.03125 0
0.46875 0.03125 0
0.4375 0.0625 0
0.46875 0.0625 0
0.46875 0.03125 0
0.5 0.03125 0
0.46875 0.0625 0
0.5 0.0625 0
0.375 0.0625 0
0.40625 0.0625 0
0.375 0.09375 0
0.40625 0.09375 0
0.40625 0.0625 0
0.4375 0.0625 0
0.40625 0.09375 0
0.4375 0.09375 0
0.375 0.09375 0
0.40625 0.09375 0
0.375 0.125 0
0.40625 0.125 0
0.40625 0.09375 0
0.4375 0.09375 0
0.40625 0.125 0
0.4375 0.125 0
0.4375 0.0625 0
0.46875 0.0625 0
0.4375 0.09375 0
0.46875 0.09375 0
0.46875 0.0625 0
0.5 0.0625 0
0.46875 0.09375 0
0.5 0.09375 0
0.4375 0.09375 0
0.46875 0.09375 0
0.4375 0.125 0
0.46875 0.125 0
0.46875 0.09375 0
0.5 0.09375 0
0.46875 0.125 0
0.5 0.125 0
0.25 0.125 0
0.28125 0.125 0
0.25 0.15625 0
0.28125 0.15625 0
0.28125 0.125 0
0.3125 0.125 0
0.28125 0.15625 0
0.3125 0.15625 0
0.25 0.15625 0
0.28125 0.15625 0
0.25 0.1875 0
0.28125 0.1875 0
0.28125 0.15625 0
0.3125 0.15625 0
0.28125 0.1875 0
0.3125 0.1875 0
0.3125 0.125 0
0.34375 0.125 0
0.3125 0.15625 0
0.34375 0.15625 0
0.34375 0.125 0
0.375 0.125 0
0.34375 0.15625 0
0.375 0.15625 0
0.3125 0.15625 0
0.34375 0.15625 0
0.3125 0.1875 0
0.34375 0.1875 0
0.34375 0.15625 0
0.375 0.15625 0
0.34375 0.1875 0
0.375 0.1875 0
0.25 0.1875 0
0.28125 0.1875 0
0.25 0.21875 0
0.28125 0.21875 0
0.28125 0.1875 0
0.3125 0.1875 0
0.28125 0.21875 0
0.3125 0.21875 0
0.25 0.21875 0
0.28125 0.21875 0
0.25 0.25 0
0.28125 0.25 0
0.28125 0.21875 0
0.3125 0.21875 0
0.28125 0.25 0
0.3125 0.25 0
0.3125 0.1875 0
0.34375 0.1875 0
0.3125 0.21875 0
0.34375 0.21875 0
0.34375 0.1875 0
0.375 0.1875 0
0.34375 0.21875 0
0.375 0.21875 0
0.3125 0.21875 0
0.34375 0.21875 0
0.3125 0.25 0
0.34375 0.25 0
0.34375 0.21875 0
0.375 0.21875 0
0.34375 0.25 0
0.375 0.25 0
0.375 0.125 0
0.40625 0.125 0
0.375 0.15625 0
0.40625 0.15625 0
0.40625 0.125 0
0.4375 0.125 0
0.40625 0.15625 0
0.4375 0.15625 0
0.375 0.15625 0
0.40625 0.15625 0
0.375 0.1875 0
0.40625 0.1875 0
0.40625 0.15625 0
0.4375 0.15625 0
0.40625 0.1875 0
0.4375 0.1875 0
0.4375 0.125 0
0.46875 0.125 0
0.4375 0.15625 0
0.46875 0.15625 0
0.46875 0.125 0
0.5 0.125 0
0.46875 0.15625 0
0.5 0.15625 0
0.4375 0.15625 0
0.46875 0.15625 0
0.4375 0.1875 0
0.46875 0.1875 0
0.46875 0.15625 0
0.5 0.15625 0
0.46875 0.1875 0
0.5 0.1875 0
0.375 0.1875 0
0.40625 0.1875 0
0.375 0.21875 0
0.40625 0.21875 0
0.40625 0.1875 0
0.4375 0.1875 0
0.40625 0.21875 0
0.4375 0.21875 0
0.375 0.21875 0
0.40625 0.21875 0
0.375 0.25 0
0.40625 0.25 0
0.40625 0.21875 0
0.4375 0.21875 0
0.40625 0.25 0
0.4375 0.25 0
0.4375 0.1875 0
0.46875 0.1875 0
0.4375 0.21875 0
0.46875 0.21875 0
0.46875 0.1875 0
0.5 0.1875 0
0.46875 0.21875 0
0.5 0.21875 0
0.4375 0.21875 0
0.46875 0.21875 0
0.4375 0.25 0
0.46875 0.25 0
0.46875 0.21875 0
0.5 0.21875 0
0.46875 0.25 0
0.5 0.25 0
0 0.25 0
0.03125 0.25 0
0 0.28125 0
0.03125 0.28125 0
0.03125 0.25 0
0.0625 0.25 0
0.03125 0.28125 0
0.0625 0.28125 0
0 0.28125 0
0.03125 0.28125 0
0 0.3125 0
0.03125 0.3125 0
0.03125 0.28125 0
0.0625 0.28125 0
0.03125 0.3125 0
0.0625 0.3125 0
0.0625 0.25 0
0.09375 0.25 0
0.0625 0.28125 0
0.09375 0.28125 0
0.09375 0.25 0
0.125 0.25 0
0.09375 0.28125 0
0.125 0.28125 0
0.0625 0.28125 0
0.09375 0.28125 0
0.0625 0.3125 0
0.09375 0.3125 0
0.09375 0.28125 0
0.125 0.28125 0
0.09375 0.3125 0
0.125 0.3125 0
0 0.3125 0
0.03125 0.3125 0
0 0.34375 0
0.03125 0.34375 0
0.03125 0.3125 0
0.0625 0.3125 0
0.03125 0.34375 0
0.0625 0.34375 0
0 0.34375 0
0.03125 0.34375 0
0 0.375 0
0.03125 0.375 0
0.03125 0.34375 0
0.0625 0.34375 0
0.03125 0.375 0
0.0625 0.375 0
0.0625 0.3125 0
0.09375 0.3125 0
0.0625 0.34375 0
0.09375 0.34375 0
0.09375 0.3125 0
0.125 0.3125 0
0.09375 0.34375 0
0.125 0.34375 0
0.0625 0.34375 0
0.09375 0.34375 0
0.0625 0.375 0
0.09375 0.375 0
0.09375 0.34375 0
0.125 0.34375 0
0.09375 0.375 0
0.125 0.375 0
0.125 0.25 0
0.15625 0.25 0
0.125 0.28125 0
0.15625 0.28125 0
0.15625 0.25 0
0.1875 0.25 0
0.15625 0.28125 0
0.1875 0.28125 0
0.125 0.28125 0
0.15625 0.28125 0
0.125 0.3125 0
0.15625 0.3125 0
0.15625 0.28125 0
0.1875 0.28125 0
0.15625 0.3125 0
0.1875 0.3125 0
0.1875 0.25 0
0.21875 0.25 0
0.1875 0.28125 0
0.21875 0.28125 0
0.21875 0.25 0
0.25 0.25 0
0.21875 0.28125 0
0.25 0.28125 0
0.1875 0.28125 0
0.21875 0.28125 0
0.1875 0.3125 0
0.21875 0.3125 0
0.21875 0.28125 0
0.25 0.28125 0
0.21875 0.3125 0
0.25 0.3125 0
0.125 0.3125 0
0.15625 0.3125 0
0.125 0.34375 0
0.15625 0.34375 0
0.15625 0.3125 0
0.1875 0.3125 0
0.15625 0.34375 0
0.1875 0.34375 0
0.125 0.34375 0
[...]
POINT_DATA 4096
SCALARS p double 1
LOOKUP_TABLE default
1.98868e-06 9.02196e-05 -7.59266e-05 -1.38039e-06 9.02196e-05 0.000338602 -1.38039e-06 0.000136346 -7.59266e-05 -1.38039e-06 -0.000320106 -0.000131569 -1.38039e-06 0.000136346 -0.000131569 7.67459e-06 0.000338602 0.000606134 0.000136346 0.000284966 0.000606134 0.000797307 0.000284966 0.000384653 0.000136346 0.000284966 7.67459e-06 0.000147025 0.000284966 0.000384653 0.000147025 0.000224853 -0.000320106 -0.000131569 -0.000593693 -0.000278436 -0.000131569 7.67459e-06 -0.000278436 -0.000122075 -0.000593693 -0.000278436 -0.000802055 -0.00037902 -0.000278436 -0.000122075 -0.00037902 -0.000188637 7.67459e-06 0.000147025 -0.000122075 2.19101e-05 0.000147025 0.000224853 2.19101e-05 8.78563e-05 -0.000122075 2.19101e-05 -0.000188637 -2.10506e-05 2.19101e-05 8.78563e-05 -2.10506e-05 5.06637e-05 0.000797307 0.000867215 0.000384653 0.000406164 0.000867215 0.00079965 0.000406164 0.000333892 0.000384653 0.000406164 0.000224853 0.000224618 0.000406164 0.000333892 0.000224618 0.000131935 0.00079965 0.0005924 0.000333892 0.000162482 0.0005924 0.000250351 0.000162482 -0.000107634 0.000333892 0.000162482 0.000131935 -5.90915e-05 0.000162482 -0.000107634 -5.90915e-05 -0.000349451 0.000224853 0.000224618 8.78563e-05 7.62701e-05 0.000224618 0.000131935 7.62701e-05 -2.21044e-05 8.78563e-05 7.62701e-05 5.06637e-05 3.89627e-05 7.62701e-05 -2.21044e-05 3.89627e-05 -6.08812e-05 0.000131935 -5.90915e-05 -2.21044e-05 -0.000210857 -5.90915e-05 -0.000349451 -0.000210857 -0.000490814 -2.21044e-05 -0.000210857 -6.08812e-05 -0.000249652 -0.000210857 -0.000490814 -0.000249652 -0.000527141 -0.000802055 -0.00037902 -0.000896203 -0.000398774 -0.00037902 -0.000188637 -0.000398774 -0.000168231 -0.000896203 -0.000398774 -0.000852061 -0.000315206 -0.000398774 -0.000168231 -0.000315206 -3.79526e-05 -0.000188637 -2.10506e-05 -0.000168231 2.61563e-05 -2.10506e-05 5.06637e-05 2.61563e-05 0.000110854 -0.000168231 2.61563e-05 -3.79526e-05 0.000182147 2.61563e-05 0.000110854 0.000182147 0.000283277 -0.000852061 -0.000315206 -0.000656437 -0.000113819 -0.000315206 -3.79526e-05 -0.000113819 0.000218579 -0.000656437 -0.000113819 -0.000300716 0.000216131 -0.000113819 0.000218579 0.000216131 0.000614899 -3.79526e-05 0.000182147 0.000218579 0.000461335 0.000182147 0.000283277 0.000461335 0.000580024 0.000218579 0.000461335 0.000614899 0.000877153 0.000461335 0.000580024 0.000877153 0.00101369 5.06637e-05 3.89627e-05 0.000110854 0.000105055 3.89627e-05 -6.08812e-05 0.000105055 7.77845e-06 0.000110854 0.000105055 0.000283277 0.00028627 0.000105055 7.77845e-06 0.00028627 0.000193215 -6.08812e-05 -0.000249652 7.77845e-06 -0.000179262 -0.000249652 -0.000527141 -0.000179262 -0.000454665 7.77845e-06 -0.000179262 0.000193215 7.67204e-06 -0.000179262 -0.000454665 7.67204e-06 -0.000267892 0.000283277 0.00028627 0.000580024 0.000592619 0.00028627 0.000193215 0.000592619 0.000503939 0.000580024 0.000592619 0.00101369 0.00103556 0.000592619 0.000503939 0.00103556 0.000950367 0.000193215 7.67204e-06 0.000503939 0.000318796 7.67204e-06 -0.000267892 0.000318796 4.04955e-05 0.000503939 0.000318796 0.000950367 0.000763723 0.000318796 4.04955e-05 0.000763723 0.000479599 0.000250351 -0.000218407 -0.000107634 -0.00047275 -0.000218407 -0.000804394 -0.00047275 -0.000927205 -0.000107634 -0.00047275 -0.000349451 -0.000736834 -0.00047275 -0.000927205 -0.000736834 -0.00121658 -0.000804394 -0.00149748 -0.000927205 -0.00146414 -0.00149748 -0.00228694 -0.00146414 -0.00207568 -0.000927205 -0.00146414 -0.00121658 -0.00178244 -0.00146414 -0.00207568 -0.00178244 -0.00242675 -0.000349451 -0.000736834 -0.000490814 -0.000860463 -0.000736834 -0.00121658 -0.000860463 -0.00131627 -0.000490814 -0.000860463 -0.000527141 -0.000891769 -0.000860463 -0.00131627 -0.000891769 -0.00134047 -0.00121658 -0.00178244 -0.00131627 -0.00185314 -0.00178244 -0.00242675 -0.00185314 -0.00246454 -0.00131627 -0.00185314 -0.00134047 -0.00186883 -0.00185314 -0.00246454 -0.00186883 -0.00247105 -0.00228694 -0.00316118 -0.00207568 -0.00275294 -0.00316118 -0.00410735 -0.00275294 -0.00348591 -0.00207568 -0.00275294 -0.00242675 -0.00314049 -0.00275294 -0.00348591 -0.00314049 -0.00391326 -0.00410735 -0.00511111 -0.00348591 -0.00426322 -0.00511111 -0.00615632 -0.00426322 -0.00507205 -0.00348591 -0.00426322 -0.00391326 -0.00473306 -0.00426322 -0.00507205 -0.00473306 -0.00558625 -0.00242675 -0.00314049 -0.00246454 -0.00314244 -0.00314049 -0.00391326 -0.00314244 -0.00387732 -0.00246454 -0.00314244 -0.00247105 -0.00313984 -0.00314244 -0.00387732 -0.00313984 -0.00386625 -0.00391326 -0.00473306 -0.00387732 -0.00465795 -0.00473306 -0.00558625 -0.00465795 -0.00547144 -0.00387732 -0.00465795 -0.00386625 -0.00463951 -0.00465795 -0.00547144 -0.00463951 -0.00544709 -0.000527141 -0.000891769 -0.000454665 -0.000816492 -0.000891769 -0.00134047 -0.000816492 -0.00126189 -0.000454665 -0.000816492 -0.000267892 -0.000631123 -0.000816492 -0.00126189 -0.000631123 -0.00107926 -0.00134047 -0.00186883 -0.00126189 -0.00178694 -0.00186883 -0.00247105 -0.00178694 -0.00238649 -0.00126189 -0.00178694 -0.00107926 -0.00160876 -0.00178694 -0.00238649 -0.00160876 -0.00221501 -0.000267892 -0.000631123 4.04955e-05 -0.000328276 -0.000631123 -0.00107926 -0.000328276 -0.000784837 4.04955e-05 -0.000328276 0.000479599 0.000100926 -0.000328276 -0.000784837 0.000100926 -0.000369761 -0.00107926 -0.00160876 -0.000784837 -0.001326 -0.00160876 -0.00221501 -0.001326 -0.00194766 -0.000784837 -0.001326 -0.000369761 -0.000929703 -0.001326 -0.00194766 -0.000929703 -0.00157529 -0.00247105 -0.00313984 -0.00238649 -0.00305384 -0.00313984 -0.00386625 -0.00305384 -0.00378064 -0.00238649 -0.00305384 -0.00221501 -0.00289186 -0.00305384 -0.00378064 -0.00289186 -0.00363141 -0.00386625 -0.00463951 -0.00378064 -0.00455655 -0.00463951 -0.00544709 -0.00455655 -0.00536939 -0.00378064 -0.00455655 -0.00363141 -0.00442376 -0.00455655 -0.00536939 -0.00442376 -0.00525691 -0.00221501 -0.00289186 -0.00194766 -0.00264419 -0.00289186 -0.00363141 -0.00264419 -0.00340813 -0.00194766 -0.00264419 -0.00157529 -0.0023015 -0.00264419 -0.00340813 -0.0023015 -0.00310138 -0.00363141 -0.00442376 -0.00340813 -0.00422998 -0.00442376 -0.00525691 -0.00422998 -0.00509786 -0.00340813 -0.00422998 -0.00310138 -0.0039658 -0.00422998 -0.00509786 -0.0039658 -0.00488301 -0.000300716 0.000216131 0.000222683 0.000683955 0.000216131 0.000614899 0.000683955 0.00116312 0.000222683 0.000683955 0.000922386 0.00129931 0.000683955 0.00116312 0.00129931 0.00187563 0.000614899 0.000877153 0.00116312 0.00144232 0.000877153 0.00101369 0.00144232 0.001597 0.00116312 0.00144232 0.00187563 0.00217005 0.00144232 0.001597 0.00217005 0.00234355 0.000922386 0.00129931 0.00180923 0.00207315 0.00129931 0.00187563 0.00207315 0.00276608 0.00180923 0.00207315 0.00289697 0.00301848 0.00207315 0.00276608 0.00301848 0.00385019 0.00187563 0.00217005 0.00276608 0.00307478 0.00217005 0.00234355 0.00307478 0.00326827 0.00276608 0.00307478 0.00385019 0.00417301 0.00307478 0.00326827 0.00417301 0.00438834 0.00101369 0.00103556 0.001597 0.00162739 0.00103556 0.000950367 0.00162739 0.00154433 0.001597 0.00162739 0.00234355 0.00238167 0.00162739 0.00154433 0.00238167 0.00229927 0.000950367 0.000763723 0.00154433 0.00135393 0.000763723 0.000479599 0.00135393 0.00106076 0.00154433 0.00135393 0.00229927 0.00210285 0.00135393 0.00106076 0.00210285 0.00179754 0.00234355 0.00238167 0.00326827 0.00331362 0.00238167 0.00229927 0.00331362 0.0032306 0.00326827 0.00331362 0.00438834 0.00444073 0.00331362 0.0032306 0.00444073 0.00435615 0.00229927 0.00210285 0.0032306 0.00302614 0.00210285 0.00179754 0.00302614 0.00270602 0.0032306 0.00302614 0.00435615 0.00414206 0.00302614 0.00270602 0.00414206 0.00380511 0.00289697 0.00301848 0.00420268 0.00415098 0.00301848 0.00385019 0.00415098 0.00514653 0.00420268 0.00415098 0.00574721 0.00548953 0.00415098 0.00514653 0.00548953 0.00667728 0.00385019 0.00417301 0.00514653 0.00548391 0.00417301 0.00438834 0.00548391 0.00572349 0.00514653 0.00548391 0.00667728 0.00703018 0.00548391 0.00572349 0.00703018 0.00729687 0.00574721 0.00548953 0.00755568 0.00705691 0.00548953 0.00667728 0.00705691 0.00846898 0.00755568 0.00705691 0.00965838 0.00888076 0.00705691 0.00846898 0.00888076 0.0105538 0.00667728 0.00703018 0.00846898 0.00883875 0.00703018 0.00729687 0.00883875 0.00913568 0.00846898 0.00883875 0.0105538 0.0109419 0.00883875 0.00913568 0.0109419 0.011272 0.00438834 0.00444073 0.00572349 0.00578313 0.00444073 0.00435615 0.00578313 0.00569638 0.00572349 0.00578313 0.00729687 0.00736415 0.00578313 0.00569638 0.00736415 0.0072749 0.00435615 0.00414206 0.00569638 0.00547158 0.00414206 0.00380511 0.00547158 0.0051165 0.00569638 0.00547158 0.0072749 0.00703875 0.00547158 0.0051165 0.00703875 0.00666499 0.00729687 0.00736415 0.00913568 0.0092109 0.00736415 0.0072749 0.0092109 0.00911869 0.00913568 0.0092109 0.011272 0.0113548 0.0092109 0.00911869 0.0113548 0.0112585 0.0072749 0.00703875 0.00911869 0.00887068 0.00703875 0.00666499 0.00887068 0.0084782 0.00911869 0.00887068 0.0112585 0.0109977 0.00887068 0.0084782 0.0109977 0.0105866 0.000479599 0.000100926 0.00106076 0.000667876 0.000100926 -0.000369761 0.000667876 0.000177586 0.00106076 0.000667876 0.00179754 0.00138645 0.000667876 0.000177586 0.00138645 0.00087158 -0.000369761 -0.000929703 0.000177586 -0.000407866 -0.000929703 -0.00157529 -0.000407866 -0.00108546 0.000177586 -0.000407866 0.00087158 0.000254571 -0.000407866 -0.00108546 0.000254571 -0.000462313 0.00179754 0.00138645 0.00270602 0.00227335 0.00138645 0.00087158 0.00227335 0.00172977 0.00270602 0.00227335 0.00380511 0.00334841 0.00227335 0.00172977 0.00334841 0.00277314 0.00087158 0.000254571 0.00172977 0.0010762 0.000254571 -0.000462313 0.0010762 0.000313904 0.00172977 0.0010762 0.00277314 0.0020794 0.0010762 0.000313904 0.0020794 0.00126717 -0.00157529 -0.0023015 -0.00108546 -0.00185084 -0.0023015 -0.00310138 -0.00185084 -0.00269777 -0.00108546 -0.00185084 -0.000462313 -0.00127561 -0.00185084 -0.00269777 -0.00127561 -0.00217994 -0.00310138 -0.0039658 -0.00269777 -0.00361758 -0.0039658 -0.00488301 -0.00361758 -0.00459868 -0.00269777 -0.00361758 -0.00217994 -0.00316736 -0.00361758 -0.00459868 -0.00316736 -0.00422667 -0.000462313 -0.00127561 0.000313904 -0.0005548 -0.00127561 -0.00217994 -0.0005548 -0.00152572 0.000313904 -0.0005548 0.00126717 0.000337298 -0.0005548 -0.00152572 0.000337298 -0.000707625 -0.00217994 -0.00316736 -0.00152572 -0.00259197 -0.00316736 -0.00422667 -0.00259197 -0.00374314 -0.00152572 -0.00259197 -0.000707625 -0.00186225 -0.00259197 -0.00374314 -0.00186225 -0.00311751 0.00380511 0.00334841 0.0051165 0.00463438 0.00334841 0.00277314 0.00463438 0.00402591 0.0051165 0.00463438 0.00666499 0.00615717 0.00463438 0.00402591 0.00615717 0.00551555 0.00277314 0.0020794 0.00402591 0.00329017 0.0020794 0.00126717 0.00329017 0.0024256 0.00402591 0.00329017 0.00551555 0.00473801 0.00329017 0.0024256 0.00473801 0.00382126 0.00666499 0.00615717 0.0084782 0.00794545 0.00615717 0.00551555 0.00794545 0.00727232 0.0084782 0.00794545 0.0105866 0.0100303 0.00794545 0.00727232 0.0100303 0.00932861 0.00551555 0.00473801 0.00727232 0.00645545 0.00473801 0.00382126 0.00645545 0.00548964 0.00727232 0.00645545 0.00932861 0.00847701 0.00645545 0.00548964 0.00847701 0.0074683 0.00126717 0.000337298 0.0024256 0.00143119 0.000337298 -0.000707625 0.00143119 0.00030746 0.0024256 0.00143119 0.00382126 0.00276206 0.00143119 0.00030746 0.00276206 0.00155825 -0.000707625 -0.00186225 0.00030746 -0.000942439 -0.00186225 -0.00311751 -0.000942439 -0.00231159 0.00030746 -0.000942439 0.00155825 0.000210021 -0.000942439 -0.00231159 0.000210021 -0.00127886 0.00382126 0.00276206 0.00548964 0.00436906 0.00276206 0.00155825 0.00436906 0.00308841 0.00548964 0.00436906 0.0074683 0.00629392 0.00436906 0.00308841 0.00629392 0.00494498 0.00155825 0.000210021 0.00308841 0.00164405 0.000210021 -0.00127886 0.00164405 3.54478e-05 0.00308841 0.00164405 0.00494498 0.00341336 0.00164405 3.54478e-05 0.00341336 0.00169303 -0.00615632 -0.00722484 -0.00507205 -0.00589809 -0.00722484 -0.00829661 -0.00589809 -0.0067256 -0.00507205 -0.00589809 -0.00558625 -0.00645758 -0.00589809 -0.0067256 -0.00645758 -0.00733032 -0.00829661 -0.00934976 -0.0067256 -0.00753756 -0.00934976 -0.0103609 -0.00753756 -0.00831597 -0.0067256 -0.00753756 -0.00733032 -0.00818645 -0.00753756 -0.00831597 -0.00818645 -0.00900698 -0.00558625 -0.00645758 -0.00547144 -0.00630325 -0.00645758 -0.00733032 -0.00630325 -0.00713734 -0.00547144 -0.00630325 -0.00544709 -0.00627473 -0.00630325 -0.00713734 -0.00627473 -0.00710639 -0.00733032 -0.00818645 -0.00713734 -0.00795636 -0.00818645 -0.00900698 -0.00795636 -0.00874208 -0.00713734 -0.00795636 -0.00710639 -0.00792468 -0.00795636 -0.00874208 -0.00792468 -0.00871125 -0.0103609 -0.0113058 -0.00831597 -0.00904231 -0.0113058 -0.0121596 -0.00904231 -0.0096982 -0.00831597 -0.00904231 -0.00900698 -0.00977255 -0.00904231 -0.0096982 -0.00977255 -0.0104641 -0.0121596 -0.0128985 -0.0096982 -0.0102661 -0.0128985 -0.0135002 -0.0102661 -0.0107306 -0.0096982 -0.0102661 -0.0104641 -0.0110639 -0.0102661 -0.0107306 -0.0110639 -0.0115565 -0.00900698 -0.00977255 -0.00874208 -0.0094759 -0.00977255 -0.0104641 -0.0094759 -0.0101396 -0.00874208 -0.0094759 -0.00871125 -0.00944719 -0.0094759 -0.0101396 -0.00944719 -0.010114 -0.0104641 -0.0110639 -0.0101396 -0.0107163 -0.0110639 -0.0115565 -0.0107163 -0.0111917 -0.0101396 -0.0107163 -0.010114 -0.0106943 -0.0107163 -0.0111917 -0.0106943 -0.0111735 -0.00544709 -0.00627473 -0.00536939 -0.00620499 -0.00627473 -0.00710639 -0.00620499 -0.0070472 -0.00536939 -0.00620499 -0.00525691 -0.00611662 -0.00620499 -0.0070472 -0.00611662 -0.00698641 -0.00710639 -0.00792468 -0.0070472 -0.00787827 -0.00792468 -0.00871125 -0.00787827 -0.0086793 -0.0070472 -0.00787827 -0.00698641 -0.0078478 -0.00787827 -0.0086793 -0.0078478 -0.00868084 -0.00525691 -0.00611662 -0.00509786 -0.00599731 -0.00611662 -0.00698641 -0.00599731 -0.0069113 -0.00509786 -0.00599731 -0.00488301 -0.00583827 -0.00599731 -0.0069113 -0.00583827 -0.00681383 -0.00698641 -0.0078478 -0.0069113 -0.00782036 -0.0078478 -0.00868084 -0.00782036 -0.00870299 -0.0069113 -0.00782036 -0.00681383 -0.00778892 -0.00782036 -0.00870299 -0.00778892 -0.00874008 -0.00871125 -0.00944719 -0.0086793 -0.00943061 -0.00944719 -0.010114 -0.00943061 -0.0101127 -0.0086793 -0.00943061 -0.00868084 -0.00946451 -0.00943061 -0.0101127 -0.00946451 -0.0101777 -0.010114 -0.0106943 -0.0101127 -0.0107074 -0.0106943 -0.0111735 -0.0107074 -0.0111987 -0.0101127 -0.0107074 -0.0101777 -0.0108004 -0.0107074 -0.0111987 -0.0108004 -0.0113149 -0.00868084 -0.00946451 -0.00870299 -0.00953627 -0.00946451 -0.0101777 -0.00953627 -0.0102968 -0.00870299 -0.00953627 -0.00874008 -0.00964186 -0.00953627 -0.0102968 -0.00964186 -0.0104678 -0.0101777 -0.0108004 -0.0102968 -0.010962 -0.0108004 -0.0113149 -0.010962 -0.0115115 -0.0102968 -0.010962 -0.0104678 -0.011192 -0.010962 -0.0115115 -0.011192 -0.0117906 -0.0135002 -0.0139457 -0.0107306 -0.0110793 -0.0139457 -0.0142214 -0.0110793 -0.0113049 -0.0107306 -0.0110793 -0.0115565 -0.0119304 -0.0110793 -0.0113049 -0.0119304 -0.0121793 -0.0142214 -0.0143235 -0.0113049 -0.011405 -0.0143235 -0.0142532 -0.011405 -0.0113999 -0.0113049 -0.011405 -0.0121793 -0.0123026 -0.011405 -0.0113999 -0.0123026 -0.0123188 -0.0115565 -0.0119304 -0.0111917 -0.0115549 -0.0119304 -0.0121793 -0.0115549 -0.0118005 -0.0111917 -0.0115549 -0.0111735 -0.0115404 -0.0115549 -0.0118005 -0.0115404 -0.0117889 -0.0121793 -0.0123026 -0.0118005 -0.0119275 -0.0123026 -0.0123188 -0.0119275 -0.0119527 -0.0118005 -0.0119275 -0.0117889 -0.0119168 -0.0119275 -0.0119527 -0.0119168 -0.0119384 -0.0142532 -0.0140686 -0.0113999 -0.0112524 -0.0140686 -0.0137791 -0.0112524 -0.0113153 -0.0113999 -0.0112524 -0.0123188 -0.0121983 -0.0112524 -0.0113153 -0.0121983 -0.0122554 -0.0137791 -0.0128705 -0.0113153 -0.0100748 -0.0128705 -0.0140097 -0.0100748 -0.0126956 -0.0113153 -0.0100748 -0.0122554 -0.0110252 -0.0100748 -0.0126956 -0.0110252 -0.0130761 -0.0123188 -0.0121983 -0.0119527 -0.0118391 -0.0121983 -0.0122554 -0.0118391 -0.0118985 -0.0119527 -0.0118391 -0.0119384 -0.0118143 -0.0118391 -0.0118985 -0.0118143 -0.0118419 -0.0122554 -0.0110252 -0.0118985 -0.0106351 -0.0110252 -0.0130761 -0.0106351 -0.012775 -0.0118985 -0.0106351 -0.0118419 -0.0105477 -0.0106351 -0.012775 -0.0105477 -0.0125091 -0.0111735 -0.0115404 -0.0111987 -0.0115743 -0.0115404 -0.0117889 -0.0115743 -0.011827 -0.0111987 -0.0115743 -0.0113149 -0.011707 -0.0115743 -0.011827 -0.011707 -0.0119679 -0.0117889 -0.0119168 -0.011827 -0.0119532 -0.0119168 -0.0119384 -0.0119532 -0.0119653 -0.011827 -0.0119532 -0.0119679 -0.0120926 -0.0119532 -0.0119653 -0.0120926 -0.0120925 -0.0113149 -0.011707 -0.0115115 -0.011929 -0.011707 -0.0119679 -0.011929 -0.0122036 -0.0115115 -0.011929 -0.0117906 -0.0122443 -0.011929 -0.0122036 -0.0122443 -0.0125399 -0.0119679 -0.0120926 -0.0122036 -0.012329 -0.0120926 -0.0120925 -0.012329 -0.0123161 -0.0122036 -0.012329 -0.0125399 -0.0126696 -0.012329 -0.0123161 -0.0126696 -0.0126445 -0.0119384 -0.0118143 -0.0119653 -0.0118214 -0.0118143 -0.0118419 -0.0118214 -0.0118142 -0.0119653 -0.0118214 -0.0120925 -0.0119247 -0.0118214 -0.0118142 -0.0119247 -0.0118814 -0.0118419 -0.0105477 -0.0118142 -0.010477 -0.0105477 -0.0125091 -0.010477 -0.0123677 -0.0118142 -0.010477 -0.0118814 -0.0104978 -0.010477 -0.0123677 -0.0104978 -0.0123322 -0.0120925 -0.0119247 -0.0123161 -0.012122 -0.0119247 -0.0118814 -0.012122 -0.0120432 -0.0123161 -0.012122 -0.0126445 -0.0124224 -0.012122 -0.0120432 -0.0124224 -0.0123075 -0.0118814 -0.0104978 -0.0120432 -0.0106052 -0.0104978 -0.0123322 -0.0106052 -0.0124105 -0.0120432 -0.0106052 -0.0123075 -0.0108041 -0.0106052 -0.0124105 -0.0108041 -0.0125989 -0.00488301 -0.00583827 -0.00459868 -0.0056261 -0.00583827 -0.00681383 -0.0056261 -0.0066813 -0.00459868 -0.0056261 -0.00422667 -0.00534282 -0.0056261 -0.0066813 -0.00534282 -0.00649655 -0.00681383 -0.00778892 -0.0066813 -0.00774201 -0.00778892 -0.00874008 -0.00774201 -0.00878241 -0.0066813 -0.00774201 -0.00649655 -0.00766397 -0.00774201 -0.00878241 -0.00766397 -0.00881654 -0.00422667 -0.00534282 -0.00374314 -0.00496444 -0.00534282 -0.00649655 -0.00496444 -0.00623613 -0.00374314 -0.00496444 -0.00311751 -0.00445955 -0.00496444 -0.00623613 -0.00445955 -0.00586866 -0.00649655 -0.00766397 -0.00623613 -0.00753281 -0.00766397 -0.00881654 -0.00753281 -0.00882302 -0.00623613 -0.00753281 -0.00586866 -0.00731826 -0.00753281 -0.00882302 -0.00731826 -0.00877411 -0.00874008 -0.00964186 -0.00878241 -0.00977387 -0.00964186 -0.0104678 -0.00977387 -0.010686 -0.00878241 -0.00977387 -0.00881654 -0.00992182 -0.00977387 -0.010686 -0.00992182 -0.0109446 -0.0104678 -0.011192 -0.010686 -0.0114886 -0.011192 -0.0117906 -0.0114886 -0.0121533 -0.010686 -0.0114886 -0.0109446 -0.0118489 -0.0114886 -0.0121533 -0.0118489 -0.0126007 -0.00881654 -0.00992182 -0.00882302 -0.0100699 -0.00992182 -0.0109446 -0.0100699 -0.0112323 -0.00882302 -0.0100699 -0.00877411 -0.0101945 -0.0100699 -0.0112323 -0.0101945 -0.0115312 -0.0109446 -0.0118489 -0.0112323 -0.0122671 -0.0118489 -0.0126007 -0.0122671 -0.0131325 -0.0112323 -0.0122671 -0.0115312 -0.0127321 -0.0122671 -0.0131325 -0.0127321 -0.0137453 -0.00311751 -0.00445955 -0.00231159 -0.00378795 -0.00445955 -0.00586866 -0.00378795 -0.00535278 -0.00231159 -0.00378795 -0.00127886 -0.00289937 -0.00378795 -0.00535278 -0.00289937 -0.00463523 -0.00586866 -0.00731826 -0.00535278 -0.0069792 -0.00731826 -0.00877411 -0.0069792 -0.00863068 -0.00535278 -0.0069792 -0.00463523 -0.00646074 -0.0069792 -0.00863068 -0.00646074 -0.00833838 -0.00127886 -0.00289937 3.54478e-05 -0.00173294 -0.00289937 -0.00463523 -0.00173294 -0.00364933 3.54478e-05 -0.00173294 0.00169303 -0.000217876 -0.00173294 -0.00364933 -0.000217876 -0.00231454 -0.00463523 -0.00646074 -0.00364933 -0.00569149 -0.00646074 -0.00833838 -0.00569149 -0.00782334 -0.00364933 -0.00569149 -0.00231454 -0.00458155 -0.00569149 -0.00782334 -0.