# vtk DataFile Version 3.0
#This file was generated by the deal.II library on 2026/1/5 at 14:19:34
ASCII
DATASET UNSTRUCTURED_GRID

POINTS 4096 double
0 0 0
0.03125 0 0
0 0.03125 0
0.03125 0.03125 0
0.03125 0 0
0.0625 0 0
0.03125 0.03125 0
0.0625 0.03125 0
0 0.03125 0
0.03125 0.03125 0
0 0.0625 0
0.03125 0.0625 0
0.03125 0.03125 0
0.0625 0.03125 0
0.03125 0.0625 0
0.0625 0.0625 0
0.0625 0 0
0.09375 0 0
0.0625 0.03125 0
0.09375 0.03125 0
0.09375 0 0
0.125 0 0
0.09375 0.03125 0
0.125 0.03125 0
0.0625 0.03125 0
0.09375 0.03125 0
0.0625 0.0625 0
0.09375 0.0625 0
0.09375 0.03125 0
0.125 0.03125 0
0.09375 0.0625 0
0.125 0.0625 0
0 0.0625 0
0.03125 0.0625 0
0 0.09375 0
0.03125 0.09375 0
0.03125 0.0625 0
0.0625 0.0625 0
0.03125 0.09375 0
0.0625 0.09375 0
0 0.09375 0
0.03125 0.09375 0
0 0.125 0
0.03125 0.125 0
0.03125 0.09375 0
0.0625 0.09375 0
0.03125 0.125 0
0.0625 0.125 0
0.0625 0.0625 0
0.09375 0.0625 0
0.0625 0.09375 0
0.09375 0.09375 0
0.09375 0.0625 0
0.125 0.0625 0
0.09375 0.09375 0
0.125 0.09375 0
0.0625 0.09375 0
0.09375 0.09375 0
0.0625 0.125 0
0.09375 0.125 0
0.09375 0.09375 0
0.125 0.09375 0
0.09375 0.125 0
0.125 0.125 0
0.125 0 0
0.15625 0 0
0.125 0.03125 0
0.15625 0.03125 0
0.15625 0 0
0.1875 0 0
0.15625 0.03125 0
0.1875 0.03125 0
0.125 0.03125 0
0.15625 0.03125 0
0.125 0.0625 0
0.15625 0.0625 0
0.15625 0.03125 0
0.1875 0.03125 0
0.15625 0.0625 0
0.1875 0.0625 0
0.1875 0 0
0.21875 0 0
0.1875 0.03125 0
0.21875 0.03125 0
0.21875 0 0
0.25 0 0
0.21875 0.03125 0
0.25 0.03125 0
0.1875 0.03125 0
0.21875 0.03125 0
0.1875 0.0625 0
0.21875 0.0625 0
0.21875 0.03125 0
0.25 0.03125 0
0.21875 0.0625 0
0.25 0.0625 0
0.125 0.0625 0
0.15625 0.0625 0
0.125 0.09375 0
0.15625 0.09375 0
0.15625 0.0625 0
0.1875 0.0625 0
0.15625 0.09375 0
0.1875 0.09375 0
0.125 0.09375 0
0.15625 0.09375 0
0.125 0.125 0
0.15625 0.125 0
0.15625 0.09375 0
0.1875 0.09375 0
0.15625 0.125 0
0.1875 0.125 0
0.1875 0.0625 0
0.21875 0.0625 0
0.1875 0.09375 0
0.21875 0.09375 0
0.21875 0.0625 0
0.25 0.0625 0
0.21875 0.09375 0
0.25 0.09375 0
0.1875 0.09375 0
0.21875 0.09375 0
0.1875 0.125 0
0.21875 0.125 0
0.21875 0.09375 0
0.25 0.09375 0
0.21875 0.125 0
0.25 0.125 0
0 0.125 0
0.03125 0.125 0
0 0.15625 0
0.03125 0.15625 0
0.03125 0.125 0
0.0625 0.125 0
0.03125 0.15625 0
0.0625 0.15625 0
0 0.15625 0
0.03125 0.15625 0
0 0.1875 0
0.03125 0.1875 0
0.03125 0.15625 0
0.0625 0.15625 0
0.03125 0.1875 0
0.0625 0.1875 0
0.0625 0.125 0
0.09375 0.125 0
0.0625 0.15625 0
0.09375 0.15625 0
0.09375 0.125 0
0.125 0.125 0
0.09375 0.15625 0
0.125 0.15625 0
0.0625 0.15625 0
0.09375 0.15625 0
0.0625 0.1875 0
0.09375 0.1875 0
0.09375 0.15625 0
0.125 0.15625 0
0.09375 0.1875 0
0.125 0.1875 0
0 0.1875 0
0.03125 0.1875 0
0 0.21875 0
0.03125 0.21875 0
0.03125 0.1875 0
0.0625 0.1875 0
0.03125 0.21875 0
0.0625 0.21875 0
0 0.21875 0
0.03125 0.21875 0
0 0.25 0
0.03125 0.25 0
0.03125 0.21875 0
0.0625 0.21875 0
0.03125 0.25 0
0.0625 0.25 0
0.0625 0.1875 0
0.09375 0.1875 0
0.0625 0.21875 0
0.09375 0.21875 0
0.09375 0.1875 0
0.125 0.1875 0
0.09375 0.21875 0
0.125 0.21875 0
0.0625 0.21875 0
0.09375 0.21875 0
0.0625 0.25 0
0.09375 0.25 0
0.09375 0.21875 0
0.125 0.21875 0
0.09375 0.25 0
0.125 0.25 0
0.125 0.125 0
0.15625 0.125 0
0.125 0.15625 0
0.15625 0.15625 0
0.15625 0.125 0
0.1875 0.125 0
0.15625 0.15625 0
0.1875 0.15625 0
0.125 0.15625 0
0.15625 0.15625 0
0.125 0.1875 0
0.15625 0.1875 0
0.15625 0.15625 0
0.1875 0.15625 0
0.15625 0.1875 0
0.1875 0.1875 0
0.1875 0.125 0
0.21875 0.125 0
0.1875 0.15625 0
0.21875 0.15625 0
0.21875 0.125 0
0.25 0.125 0
0.21875 0.15625 0
0.25 0.15625 0
0.1875 0.15625 0
0.21875 0.15625 0
0.1875 0.1875 0
0.21875 0.1875 0
0.21875 0.15625 0
0.25 0.15625 0
0.21875 0.1875 0
0.25 0.1875 0
0.125 0.1875 0
0.15625 0.1875 0
0.125 0.21875 0
0.15625 0.21875 0
0.15625 0.1875 0
0.1875 0.1875 0
0.15625 0.21875 0
0.1875 0.21875 0
0.125 0.21875 0
0.15625 0.21875 0
0.125 0.25 0
0.15625 0.25 0
0.15625 0.21875 0
0.1875 0.21875 0
0.15625 0.25 0
0.1875 0.25 0
0.1875 0.1875 0
0.21875 0.1875 0
0.1875 0.21875 0
0.21875 0.21875 0
0.21875 0.1875 0
0.25 0.1875 0
0.21875 0.21875 0
0.25 0.21875 0
0.1875 0.21875 0
0.21875 0.21875 0
0.1875 0.25 0
0.21875 0.25 0
0.21875 0.21875 0
0.25 0.21875 0
0.21875 0.25 0
0.25 0.25 0
0.25 0 0
0.28125 0 0
0.25 0.03125 0
0.28125 0.03125 0
0.28125 0 0
0.3125 0 0
0.28125 0.03125 0
0.3125 0.03125 0
0.25 0.03125 0
0.28125 0.03125 0
0.25 0.0625 0
0.28125 0.0625 0
0.28125 0.03125 0
0.3125 0.03125 0
0.28125 0.0625 0
0.3125 0.0625 0
0.3125 0 0
0.34375 0 0
0.3125 0.03125 0
0.34375 0.03125 0
0.34375 0 0
0.375 0 0
0.34375 0.03125 0
0.375 0.03125 0
0.3125 0.03125 0
0.34375 0.03125 0
0.3125 0.0625 0
0.34375 0.0625 0
0.34375 0.03125 0
0.375 0.03125 0
0.34375 0.0625 0
0.375 0.0625 0
0.25 0.0625 0
0.28125 0.0625 0
0.25 0.09375 0
0.28125 0.09375 0
0.28125 0.0625 0
0.3125 0.0625 0
0.28125 0.09375 0
0.3125 0.09375 0
0.25 0.09375 0
0.28125 0.09375 0
0.25 0.125 0
0.28125 0.125 0
0.28125 0.09375 0
0.3125 0.09375 0
0.28125 0.125 0
0.3125 0.125 0
0.3125 0.0625 0
0.34375 0.0625 0
0.3125 0.09375 0
0.34375 0.09375 0
0.34375 0.0625 0
0.375 0.0625 0
0.34375 0.09375 0
0.375 0.09375 0
0.3125 0.09375 0
0.34375 0.09375 0
0.3125 0.125 0
0.34375 0.125 0
0.34375 0.09375 0
0.375 0.09375 0
0.34375 0.125 0
0.375 0.125 0
0.375 0 0
0.40625 0 0
0.375 0.03125 0
0.40625 0.03125 0
0.40625 0 0
0.4375 0 0
0.40625 0.03125 0
0.4375 0.03125 0
0.375 0.03125 0
0.40625 0.03125 0
0.375 0.0625 0
0.40625 0.0625 0
0.40625 0.03125 0
0.4375 0.03125 0
0.40625 0.0625 0
0.4375 0.0625 0
0.4375 0 0
0.46875 0 0
0.4375 0.03125 0
0.46875 0.03125 0
0.46875 0 0
0.5 0 0
0.46875 0.03125 0
0.5 0.03125 0
0.4375 0.03125 0
0.46875 0.03125 0
0.4375 0.0625 0
0.46875 0.0625 0
0.46875 0.03125 0
0.5 0.03125 0
0.46875 0.0625 0
0.5 0.0625 0
0.375 0.0625 0
0.40625 0.0625 0
0.375 0.09375 0
0.40625 0.09375 0
0.40625 0.0625 0
0.4375 0.0625 0
0.40625 0.09375 0
0.4375 0.09375 0
0.375 0.09375 0
0.40625 0.09375 0
0.375 0.125 0
0.40625 0.125 0
0.40625 0.09375 0
0.4375 0.09375 0
0.40625 0.125 0
0.4375 0.125 0
0.4375 0.0625 0
0.46875 0.0625 0
0.4375 0.09375 0
0.46875 0.09375 0
0.46875 0.0625 0
0.5 0.0625 0
0.46875 0.09375 0
0.5 0.09375 0
0.4375 0.09375 0
0.46875 0.09375 0
0.4375 0.125 0
0.46875 0.125 0
0.46875 0.09375 0
0.5 0.09375 0
0.46875 0.125 0
0.5 0.125 0
0.25 0.125 0
0.28125 0.125 0
0.25 0.15625 0
0.28125 0.15625 0
0.28125 0.125 0
0.3125 0.125 0
0.28125 0.15625 0
0.3125 0.15625 0
0.25 0.15625 0
0.28125 0.15625 0
0.25 0.1875 0
0.28125 0.1875 0
0.28125 0.15625 0
0.3125 0.15625 0
0.28125 0.1875 0
0.3125 0.1875 0
0.3125 0.125 0
0.34375 0.125 0
0.3125 0.15625 0
0.34375 0.15625 0
0.34375 0.125 0
0.375 0.125 0
0.34375 0.15625 0
0.375 0.15625 0
0.3125 0.15625 0
0.34375 0.15625 0
0.3125 0.1875 0
0.34375 0.1875 0
0.34375 0.15625 0
0.375 0.15625 0
0.34375 0.1875 0
0.375 0.1875 0
0.25 0.1875 0
0.28125 0.1875 0
0.25 0.21875 0
0.28125 0.21875 0
0.28125 0.1875 0
0.3125 0.1875 0
0.28125 0.21875 0
0.3125 0.21875 0
0.25 0.21875 0
0.28125 0.21875 0
0.25 0.25 0
0.28125 0.25 0
0.28125 0.21875 0
0.3125 0.21875 0
0.28125 0.25 0
0.3125 0.25 0
0.3125 0.1875 0
0.34375 0.1875 0
0.3125 0.21875 0
0.34375 0.21875 0
0.34375 0.1875 0
0.375 0.1875 0
0.34375 0.21875 0
0.375 0.21875 0
0.3125 0.21875 0
0.34375 0.21875 0
0.3125 0.25 0
0.34375 0.25 0
0.34375 0.21875 0
0.375 0.21875 0
0.34375 0.25 0
0.375 0.25 0
0.375 0.125 0
0.40625 0.125 0
0.375 0.15625 0
0.40625 0.15625 0
0.40625 0.125 0
0.4375 0.125 0
0.40625 0.15625 0
0.4375 0.15625 0
0.375 0.15625 0
0.40625 0.15625 0
0.375 0.1875 0
0.40625 0.1875 0
0.40625 0.15625 0
0.4375 0.15625 0
0.40625 0.1875 0
0.4375 0.1875 0
0.4375 0.125 0
0.46875 0.125 0
0.4375 0.15625 0
0.46875 0.15625 0
0.46875 0.125 0
0.5 0.125 0
0.46875 0.15625 0
0.5 0.15625 0
0.4375 0.15625 0
0.46875 0.15625 0
0.4375 0.1875 0
0.46875 0.1875 0
0.46875 0.15625 0
0.5 0.15625 0
0.46875 0.1875 0
0.5 0.1875 0
0.375 0.1875 0
0.40625 0.1875 0
0.375 0.21875 0
0.40625 0.21875 0
0.40625 0.1875 0
0.4375 0.1875 0
0.40625 0.21875 0
0.4375 0.21875 0
0.375 0.21875 0
0.40625 0.21875 0
0.375 0.25 0
0.40625 0.25 0
0.40625 0.21875 0
0.4375 0.21875 0
0.40625 0.25 0
0.4375 0.25 0
0.4375 0.1875 0
0.46875 0.1875 0
0.4375 0.21875 0
0.46875 0.21875 0
0.46875 0.1875 0
0.5 0.1875 0
0.46875 0.21875 0
0.5 0.21875 0
0.4375 0.21875 0
0.46875 0.21875 0
0.4375 0.25 0
0.46875 0.25 0
0.46875 0.21875 0
0.5 0.21875 0
0.46875 0.25 0
0.5 0.25 0
0 0.25 0
0.03125 0.25 0
0 0.28125 0
0.03125 0.28125 0
0.03125 0.25 0
0.0625 0.25 0
0.03125 0.28125 0
0.0625 0.28125 0
0 0.28125 0
0.03125 0.28125 0
0 0.3125 0
0.03125 0.3125 0
0.03125 0.28125 0
0.0625 0.28125 0
0.03125 0.3125 0
0.0625 0.3125 0
0.0625 0.25 0
0.09375 0.25 0
0.0625 0.28125 0
0.09375 0.28125 0
0.09375 0.25 0
0.125 0.25 0
0.09375 0.28125 0
0.125 0.28125 0
0.0625 0.28125 0
0.09375 0.28125 0
0.0625 0.3125 0
0.09375 0.3125 0
0.09375 0.28125 0
0.125 0.28125 0
0.09375 0.3125 0
0.125 0.3125 0
0 0.3125 0
0.03125 0.3125 0
0 0.34375 0
0.03125 0.34375 0
0.03125 0.3125 0
0.0625 0.3125 0
0.03125 0.34375 0
0.0625 0.34375 0
0 0.34375 0
0.03125 0.34375 0
0 0.375 0
0.03125 0.375 0
0.03125 0.34375 0
0.0625 0.34375 0
0.03125 0.375 0
0.0625 0.375 0
0.0625 0.3125 0
0.09375 0.3125 0
0.0625 0.34375 0
0.09375 0.34375 0
0.09375 0.3125 0
0.125 0.3125 0
0.09375 0.34375 0
0.125 0.34375 0
0.0625 0.34375 0
0.09375 0.34375 0
0.0625 0.375 0
0.09375 0.375 0
0.09375 0.34375 0
0.125 0.34375 0
0.09375 0.375 0
0.125 0.375 0
0.125 0.25 0
0.15625 0.25 0
0.125 0.28125 0
0.15625 0.28125 0
0.15625 0.25 0
0.1875 0.25 0
0.15625 0.28125 0
0.1875 0.28125 0
0.125 0.28125 0
0.15625 0.28125 0
0.125 0.3125 0
0.15625 0.3125 0
0.15625 0.28125 0
0.1875 0.28125 0
0.15625 0.3125 0
0.1875 0.3125 0
0.1875 0.25 0
0.21875 0.25 0
0.1875 0.28125 0
0.21875 0.28125 0
0.21875 0.25 0
0.25 0.25 0
0.21875 0.28125 0
0.25 0.28125 0
0.1875 0.28125 0
0.21875 0.28125 0
0.1875 0.3125 0
0.21875 0.3125 0
0.21875 0.28125 0
0.25 0.28125 0
0.21875 0.3125 0
0.25 0.3125 0
0.125 0.3125 0
0.15625 0.3125 0
0.125 0.34375 0
0.15625 0.34375 0
0.15625 0.3125 0
0.1875 0.3125 0
0.15625 0.34375 0
0.1875 0.34375 0
0.125 0.34375 0
[...]
POINT_DATA 4096
SCALARS p double 1
LOOKUP_TABLE default
2.73995e-06 9.7687e-05 -9.16328e-05 5.38003e-06 9.7687e-05 0.000341377 5.38003e-06 0.00013383 -9.16328e-05 5.38003e-06 -0.000338662 -0.00012439 5.38003e-06 0.00013383 -0.00012439 6.32335e-06 0.000341377 0.000572112 0.00013383 0.000255684 0.000572112 0.000697879 0.000255684 0.000310311 0.00013383 0.000255684 6.32335e-06 0.000117754 0.000255684 0.000310311 0.000117754 0.000150522 -0.000338662 -0.00012439 -0.000579184 -0.000247632 -0.00012439 6.32335e-06 -0.000247632 -9.91569e-05 -0.000579184 -0.000247632 -0.000722442 -0.000303221 -0.000247632 -9.91569e-05 -0.000303221 -0.000121168 6.32335e-06 0.000117754 -9.91569e-05 1.6641e-05 0.000117754 0.000150522 1.6641e-05 4.03391e-05 -9.91569e-05 1.6641e-05 -0.000121168 1.45153e-05 1.6641e-05 4.03391e-05 1.45153e-05 4.33314e-05 0.000697879 0.000681545 0.000310311 0.000271578 0.000681545 0.000514766 0.000271578 0.000128 0.000310311 0.000271578 0.000150522 9.00121e-05 0.000271578 0.000128 9.00121e-05 -7.52187e-05 0.000514766 0.000201371 0.000128 -0.000122093 0.000201371 -0.000249853 -0.000122093 -0.000475575 0.000128 -0.000122093 -7.52187e-05 -0.000348135 -0.000122093 -0.000475575 -0.000348135 -0.000727329 0.000150522 9.00121e-05 4.03391e-05 -2.7244e-05 9.00121e-05 -7.52187e-05 -2.7244e-05 -0.000193458 4.03391e-05 -2.7244e-05 4.33314e-05 -2.42373e-05 -2.7244e-05 -0.000193458 -2.42373e-05 -0.00019161 -7.52187e-05 -0.000348135 -0.000193458 -0.000459961 -0.000348135 -0.000727329 -0.000459961 -0.000825873 -0.000193458 -0.000459961 -0.00019161 -0.000458379 -0.000459961 -0.000825873 -0.000458379 -0.000823139 -0.000722442 -0.000303221 -0.000728103 -0.000261337 -0.000303221 -0.000121168 -0.000261337 -3.99579e-05 -0.000728103 -0.000261337 -0.000580381 -0.00010397 -0.000261337 -3.99579e-05 -0.00010397 0.00016365 -0.000121168 1.45153e-05 -3.99579e-05 0.00011665 1.45153e-05 4.33314e-05 0.00011665 0.000156058 -3.99579e-05 0.00011665 0.00016365 0.000338639 0.00011665 0.000156058 0.000338639 0.000390559 -0.000580381 -0.00010397 -0.000272564 0.000179474 -0.00010397 0.00016365 0.000179474 0.000502744 -0.000272564 0.000179474 0.000199666 0.000596801 0.000179474 0.000502744 0.000596801 0.00098818 0.00016365 0.000338639 0.000502744 0.000692377 0.000338639 0.000390559 0.000692377 0.000756898 0.000502744 0.000692377 0.00098818 0.0011891 0.000692377 0.000756898 0.0011891 0.00126581 4.33314e-05 -2.42373e-05 0.000156058 9.25807e-05 -2.42373e-05 -0.00019161 9.25807e-05 -7.38807e-05 0.000156058 9.25807e-05 0.000390559 0.000332252 9.25807e-05 -7.38807e-05 0.000332252 0.000166347 -0.00019161 -0.000458379 -7.38807e-05 -0.000341144 -0.000458379 -0.000823139 -0.000341144 -0.000706969 -7.38807e-05 -0.000341144 0.000166347 -0.000103752 -0.000341144 -0.000706969 -0.000103752 -0.000475002 0.000390559 0.000332252 0.000756898 0.000703095 0.000332252 0.000166347 0.000703095 0.00053616 0.000756898 0.000703095 0.00126581 0.00121496 0.000703095 0.00053616 0.00121496 0.00104455 0.000166347 -0.000103752 0.00053616 0.000260241 -0.000103752 -0.000475002 0.000260241 -0.00012099 0.00053616 0.000260241 0.00104455 0.000759093 0.000260241 -0.00012099 0.000759093 0.000362841 -0.000249853 -0.000828525 -0.000475575 -0.000926742 -0.000828525 -0.00152382 -0.000926742 -0.00146852 -0.000475575 -0.000926742 -0.000727329 -0.00120849 -0.000926742 -0.00146852 -0.00120849 -0.00178532 -0.00152382 -0.00232466 -0.00146852 -0.00209295 -0.00232466 -0.00321951 -0.00209295 -0.00279124 -0.00146852 -0.00209295 -0.00178532 -0.00245008 -0.00209295 -0.00279124 -0.00245008 -0.00319386 -0.000727329 -0.00120849 -0.000825873 -0.00128793 -0.00120849 -0.00178532 -0.00128793 -0.00184103 -0.000825873 -0.00128793 -0.000823139 -0.00128278 -0.00128793 -0.00184103 -0.00128278 -0.0018327 -0.00178532 -0.00245008 -0.00184103 -0.00247848 -0.00245008 -0.00319386 -0.00247848 -0.00319225 -0.00184103 -0.00247848 -0.0018327 -0.00246673 -0.00247848 -0.00319225 -0.00246673 -0.00317742 -0.00321951 -0.00419602 -0.00279124 -0.00355368 -0.00419602 -0.00524072 -0.00355368 -0.00436963 -0.00279124 -0.00355368 -0.00319386 -0.0040065 -0.00355368 -0.00436963 -0.0040065 -0.00487675 -0.00524072 -0.00633878 -0.00436963 -0.00522728 -0.00633878 -0.00747391 -0.00522728 -0.00611373 -0.00436963 -0.00522728 -0.00487675 -0.00579189 -0.00522728 -0.00611373 -0.00579189 -0.00673806 -0.00319386 -0.0040065 -0.00319225 -0.00397291 -0.0040065 -0.00487675 -0.00397291 -0.00480991 -0.00319225 -0.00397291 -0.00317742 -0.00395578 -0.00397291 -0.00480991 -0.00395578 -0.00479149 -0.00487675 -0.00579189 -0.00480991 -0.00569108 -0.00579189 -0.00673806 -0.00569108 -0.00660309 -0.00480991 -0.00569108 -0.00479149 -0.00567267 -0.00569108 -0.00660309 -0.00567267 -0.00658611 -0.000823139 -0.00128278 -0.000706969 -0.00116807 -0.00128278 -0.0018327 -0.00116807 -0.00172006 -0.000706969 -0.00116807 -0.000475002 -0.000943807 -0.00116807 -0.00172006 -0.000943807 -0.00150583 -0.0018327 -0.00246673 -0.00172006 -0.00235713 -0.00246673 -0.00317742 -0.00235713 -0.00307224 -0.00172006 -0.00235713 -0.00150583 -0.00215551 -0.00235713 -0.00307224 -0.00215551 -0.00288606 -0.000475002 -0.000943807 -0.00012099 -0.000603652 -0.000943807 -0.00150583 -0.000603652 -0.00118336 -0.00012099 -0.000603652 0.000362841 -0.000140108 -0.000603652 -0.00118336 -0.000140108 -0.000745346 -0.00150583 -0.00215551 -0.00118336 -0.00185472 -0.00215551 -0.00288606 -0.00185472 -0.00261109 -0.00118336 -0.00185472 -0.000745346 -0.0014476 -0.00185472 -0.00261109 -0.0014476 -0.00224035 -0.00317742 -0.00395578 -0.00307224 -0.00385676 -0.00395578 -0.00479149 -0.00385676 -0.00470062 -0.00307224 -0.00385676 -0.00288606 -0.00368906 -0.00385676 -0.00470062 -0.00368906 -0.00455462 -0.00479149 -0.00567267 -0.00470062 -0.00559212 -0.00567267 -0.00658611 -0.00559212 -0.00651812 -0.00470062 -0.00559212 -0.00455462 -0.00547107 -0.00559212 -0.00651812 -0.00547107 -0.00642527 -0.00288606 -0.00368906 -0.00261109 -0.00344428 -0.00368906 -0.00455462 -0.00344428 -0.00434445 -0.00261109 -0.00344428 -0.00224035 -0.00311558 -0.00344428 -0.00434445 -0.00311558 -0.00406353 -0.00455462 -0.00547107 -0.00434445 -0.00529997 -0.00547107 -0.00642527 -0.00529997 -0.00629748 -0.00434445 -0.00529997 -0.00406353 -0.00507254 -0.00529997 -0.00629748 -0.00507254 -0.00612898 0.000199666 0.000596801 0.000841743 0.00115565 0.000596801 0.00098818 0.00115565 0.00163034 0.000841743 0.00115565 0.00166181 0.00186498 0.00115565 0.00163034 0.00186498 0.00244075 0.00098818 0.0011891 0.00163034 0.00184001 0.0011891 0.00126581 0.00184001 0.00192862 0.00163034 0.00184001 0.00244075 0.00265743 0.00184001 0.00192862 0.00265743 0.00275801 0.00166181 0.00186498 0.00267133 0.00273582 0.00186498 0.00244075 0.00273582 0.00343291 0.00267133 0.00273582 0.00388538 0.00378192 0.00273582 0.00343291 0.00378192 0.00462302 0.00244075 0.00265743 0.00343291 0.0036555 0.00265743 0.00275801 0.0036555 0.00376863 0.00343291 0.0036555 0.00462302 0.00485102 0.0036555 0.00376863 0.00485102 0.00497769 0.00126581 0.00121496 0.00192862 0.00187886 0.00121496 0.00104455 0.00187886 0.00170212 0.00192862 0.00187886 0.00275801 0.00270746 0.00187886 0.00170212 0.00270746 0.00252136 0.00104455 0.000759093 0.00170212 0.00140307 0.000759093 0.000362841 0.00140307 0.000986515 0.00170212 0.00140307 0.00252136 0.00220451 0.00140307 0.000986515 0.00220451 0.00176227 0.00275801 0.00270746 0.00376863 0.00371555 0.00270746 0.00252136 0.00371555 0.00351709 0.00376863 0.00371555 0.00497769 0.00492056 0.00371555 0.00351709 0.00492056 0.00470683 0.00252136 0.00220451 0.00351709 0.00317823 0.00220451 0.00176227 0.00317823 0.00270498 0.00351709 0.00317823 0.00470683 0.00434181 0.00317823 0.00270498 0.00434181 0.00383237 0.00388538 0.00378192 0.00532278 0.00502017 0.00378192 0.00462302 0.00502017 0.00603081 0.00532278 0.00502017 0.00700636 0.00647101 0.00502017 0.00603081 0.00647101 0.00768003 0.00462302 0.00485102 0.00603081 0.00626411 0.00485102 0.00497769 0.00626411 0.00640575 0.00603081 0.00626411 0.00768003 0.00791888 0.00626411 0.00640575 0.00791888 0.00807722 0.00700636 0.00647101 0.00896345 0.00815909 0.00647101 0.00768003 0.00815909 0.00959937 0.00896345 0.00815909 0.0112267 0.0101142 0.00815909 0.00959937 0.0101142 0.0118236 0.00768003 0.00791888 0.00959937 0.00984435 0.00791888 0.00807722 0.00984435 0.0100212 0.00959937 0.00984435 0.0118236 0.0120755 0.00984435 0.0100212 0.0120755 0.0122725 0.00497769 0.00492056 0.00640575 0.0063431 0.00492056 0.00470683 0.0063431 0.00611116 0.00640575 0.0063431 0.00807722 0.00800752 0.0063431 0.00611116 0.00800752 0.00775426 0.00470683 0.00434181 0.00611116 0.00571584 0.00434181 0.00383237 0.00571584 0.00516514 0.00611116 0.00571584 0.00775426 0.00732434 0.00571584 0.00516514 0.00732434 0.00672724 0.00807722 0.00800752 0.0100212 0.00994253 0.00800752 0.00775426 0.00994253 0.00966435 0.0100212 0.00994253 0.0122725 0.012182 0.00994253 0.00966435 0.012182 0.0118743 0.00775426 0.00732434 0.00966435 0.00919508 0.00732434 0.00672724 0.00919508 0.00854617 0.00966435 0.00919508 0.0118743 0.01136 0.00919508 0.00854617 0.01136 0.0106532 0.000362841 -0.000140108 0.000986515 0.000456714 -0.000140108 -0.000745346 0.000456714 -0.000181918 0.000986515 0.000456714 0.00176227 0.00119905 0.000456714 -0.000181918 0.00119905 0.000519275 -0.000745346 -0.0014476 -0.000181918 -0.000924236 -0.0014476 -0.00224035 -0.000924236 -0.00176386 -0.000181918 -0.000924236 0.000519275 -0.000272071 -0.000924236 -0.00176386 -0.000272071 -0.00116884 0.00176227 0.00119905 0.00270498 0.00210195 0.00119905 0.000519275 0.00210195 0.00137353 0.00270498 0.00210195 0.00383237 0.00318334 0.00210195 0.00137353 0.00318334 0.00239909 0.000519275 -0.000272071 0.00137353 0.000524472 -0.000272071 -0.00116884 0.000524472 -0.000439417 0.00137353 0.000524472 0.00239909 0.00148403 0.000524472 -0.000439417 0.00148403 0.000443555 -0.00224035 -0.00311558 -0.00176386 -0.00269295 -0.00311558 -0.00406353 -0.00269295 -0.00370185 -0.00176386 -0.00269295 -0.00116884 -0.00216347 -0.00269295 -0.00370185 -0.00216347 -0.00324647 -0.00406353 -0.00507254 -0.00370185 -0.00477894 -0.00507254 -0.00612898 -0.00477894 -0.00591027 -0.00370185 -0.00477894 -0.00324647 -0.00440631 -0.00477894 -0.00591027 -0.00440631 -0.00562884 -0.00116884 -0.00216347 -0.000439417 -0.00151097 -0.00216347 -0.00324647 -0.00151097 -0.00268099 -0.000439417 -0.00151097 0.000443555 -0.000715741 -0.00151097 -0.00268099 -0.000715741 -0.00198525 -0.00324647 -0.00440631 -0.00268099 -0.00393819 -0.00440631 -0.00562884 -0.00393819 -0.0052684 -0.00268099 -0.00393819 -0.00198525 -0.00335413 -0.00393819 -0.0052684 -0.00335413 -0.00480847 0.00383237 0.00318334 0.00516514 0.00446417 0.00318334 0.00239909 0.00446417 0.00361728 0.00516514 0.00446417 0.00672724 0.00596858 0.00446417 0.00361728 0.00596858 0.00505267 0.00239909 0.00148403 0.00361728 0.00262851 0.00148403 0.000443555 0.00262851 0.00150267 0.00361728 0.00262851 0.00505267 0.00398315 0.00262851 0.00150267 0.00398315 0.00276402 0.00672724 0.00596858 0.00854617 0.00772404 0.00596858 0.00505267 0.00772404 0.00673304 0.00854617 0.00772404 0.0106532 0.00976144 0.00772404 0.00673304 0.00976144 0.00868933 0.00505267 0.00398315 0.00673304 0.00557637 0.00398315 0.00276402 0.00557637 0.00425708 0.00673304 0.00557637 0.00868933 0.00743963 0.00557637 0.00425708 0.00743963 0.00601438 0.000443555 -0.000715741 0.00150267 0.000245568 -0.000715741 -0.00198525 0.000245568 -0.00113508 0.00150267 0.000245568 0.00276402 0.0014001 0.000245568 -0.00113508 0.0014001 -0.000102034 -0.00198525 -0.00335413 -0.00113508 -0.0026292 -0.00335413 -0.00480847 -0.0026292 -0.00422361 -0.00113508 -0.0026292 -0.000102034 -0.00173364 -0.0026292 -0.00422361 -0.00173364 -0.00348288 0.00276402 0.0014001 0.00425708 0.00277878 0.0014001 -0.000102034 0.00277878 0.00114652 0.00425708 0.00277878 0.00601438 0.00441581 0.00277878 0.00114652 0.00441581 0.00264701 -0.000102034 -0.00173364 0.00114652 -0.000632835 -0.00173364 -0.00348288 -0.000632835 -0.00254949 0.00114652 -0.000632835 0.00264701 0.000712522 -0.000632835 -0.00254949 0.000712522 -0.00138075 -0.00747391 -0.0086284 -0.00611373 -0.00701486 -0.0086284 -0.00978325 -0.00701486 -0.00791569 -0.00611373 -0.00701486 -0.00673806 -0.00770004 -0.00701486 -0.00791569 -0.00770004 -0.00866176 -0.00978325 -0.0109183 -0.00791569 -0.00880029 -0.0109183 -0.0120126 -0.00880029 -0.00965217 -0.00791569 -0.00880029 -0.00866176 -0.00960605 -0.00880029 -0.00965217 -0.00960605 -0.0105152 -0.00673806 -0.00770004 -0.00660309 -0.00753122 -0.00770004 -0.00866176 -0.00753122 -0.00845988 -0.00660309 -0.00753122 -0.00658611 -0.00751713 -0.00753122 -0.00845988 -0.00751713 -0.00845006 -0.00866176 -0.00960605 -0.00845988 -0.00937241 -0.00960605 -0.0105152 -0.00937241 -0.0102516 -0.00845988 -0.00937241 -0.00845006 -0.00936805 -0.00937241 -0.0102516 -0.00936805 -0.0102537 -0.0120126 -0.0130443 -0.00965217 -0.0104544 -0.0130443 -0.0139919 -0.0104544 -0.0111901 -0.00965217 -0.0104544 -0.0105152 -0.0113711 -0.0104544 -0.0111901 -0.0113711 -0.012156 -0.0139919 -0.0148334 -0.0111901 -0.011843 -0.0148334 -0.0155478 -0.011843 -0.0123975 -0.0111901 -0.011843 -0.012156 -0.0128526 -0.011843 -0.0123975 -0.0128526 -0.0134452 -0.0105152 -0.0113711 -0.0102516 -0.0110797 -0.0113711 -0.012156 -0.0110797 -0.0118396 -0.0102516 -0.0110797 -0.0102537 -0.011089 -0.0110797 -0.0118396 -0.011089 -0.0118564 -0.012156 -0.0128526 -0.0118396 -0.0125147 -0.0128526 -0.0134452 -0.0125147 -0.0130901 -0.0118396 -0.0125147 -0.0118564 -0.012539 -0.0125147 -0.0130901 -0.012539 -0.0131218 -0.00658611 -0.00751713 -0.00651812 -0.00746392 -0.00751713 -0.00845006 -0.00746392 -0.00841356 -0.00651812 -0.00746392 -0.00642527 -0.00740228 -0.00746392 -0.00841356 -0.00740228 -0.00838565 -0.00845006 -0.00936805 -0.00841356 -0.00934983 -0.00936805 -0.0102537 -0.00934983 -0.0102548 -0.00841356 -0.00934983 -0.00838565 -0.00935758 -0.00934983 -0.0102548 -0.00935758 -0.0102992 -0.00642527 -0.00740228 -0.00629748 -0.00732172 -0.00740228 -0.00838565 -0.00732172 -0.00835559 -0.00629748 -0.00732172 -0.00612898 -0.00721712 -0.00732172 -0.00835559 -0.00721712 -0.00831907 -0.00838565 -0.00935758 -0.00835559 -0.00938034 -0.00935758 -0.0102992 -0.00938034 -0.0103759 -0.00835559 -0.00938034 -0.00831907 -0.00941489 -0.00938034 -0.0103759 -0.00941489 -0.0104829 -0.0102537 -0.011089 -0.0102548 -0.01111 -0.011089 -0.0118564 -0.01111 -0.0118969 -0.0102548 -0.01111 -0.0102992 -0.011191 -0.01111 -0.0118969 -0.011191 -0.0120132 -0.0118564 -0.012539 -0.0118969 -0.0125979 -0.012539 -0.0131218 -0.0125979 -0.0131969 -0.0118969 -0.0125979 -0.0120132 -0.0127468 -0.0125979 -0.0131969 -0.0127468 -0.0133743 -0.0102992 -0.011191 -0.0103759 -0.0113212 -0.011191 -0.0120132 -0.0113212 -0.0121949 -0.0103759 -0.0113212 -0.0104829 -0.0115002 -0.0113212 -0.0121949 -0.0115002 -0.012443 -0.0120132 -0.0127468 -0.0121949 -0.0129758 -0.0127468 -0.0133743 -0.0129758 -0.0136444 -0.0121949 -0.0129758 -0.012443 -0.0132876 -0.0129758 -0.0136444 -0.0132876 -0.0140117 -0.0155478 -0.0161154 -0.0123975 -0.0128399 -0.0161154 -0.0165185 -0.0128399 -0.0131601 -0.0123975 -0.0128399 -0.0134452 -0.0139205 -0.0128399 -0.0131601 -0.0139205 -0.0142691 -0.0165185 -0.0167466 -0.0131601 -0.0133499 -0.0167466 -0.0167888 -0.0133499 -0.0134255 -0.0131601 -0.0133499 -0.0142691 -0.0144852 -0.0133499 -0.0134255 -0.0144852 -0.0145831 -0.0134452 -0.0139205 -0.0130901 -0.0135533 -0.0139205 -0.0142691 -0.0135533 -0.0138961 -0.0130901 -0.0135533 -0.0131218 -0.0135917 -0.0135533 -0.0138961 -0.0135917 -0.0139402 -0.0142691 -0.0144852 -0.0138961 -0.0141125 -0.0144852 -0.0145831 -0.0141125 -0.0142163 -0.0138961 -0.0141125 -0.0139402 -0.0141604 -0.0141125 -0.0142163 -0.0141604 -0.0142641 -0.0167888 -0.0166959 -0.0134255 -0.01333 -0.0166959 -0.016453 -0.01333 -0.0134697 -0.0134255 -0.01333 -0.0145831 -0.0145163 -0.01333 -0.0134697 -0.0145163 -0.0146481 -0.016453 -0.0154134 -0.0134697 -0.012004 -0.0154134 -0.0168031 -0.012004 -0.0152107 -0.0134697 -0.012004 -0.0146481 -0.0131961 -0.012004 -0.0152107 -0.0131961 -0.0157301 -0.0145831 -0.0145163 -0.0142163 -0.0141541 -0.0145163 -0.0146481 -0.0141541 -0.0142913 -0.0142163 -0.0141541 -0.0142641 -0.0141952 -0.0141541 -0.0142913 -0.0141952 -0.0143062 -0.0146481 -0.0131961 -0.0142913 -0.0128003 -0.0131961 -0.0157301 -0.0128003 -0.0154791 -0.0142913 -0.0128003 -0.0143062 -0.0127846 -0.0128003 -0.0154791 -0.0127846 -0.0152966 -0.0131218 -0.0135917 -0.0131969 -0.0136803 -0.0135917 -0.0139402 -0.0136803 -0.0140381 -0.0131969 -0.0136803 -0.0133743 -0.0138804 -0.0136803 -0.0140381 -0.0138804 -0.0142539 -0.0139402 -0.0141604 -0.0140381 -0.0142624 -0.0141604 -0.0142641 -0.0142624 -0.014363 -0.0140381 -0.0142624 -0.0142539 -0.0144853 -0.0142624 -0.014363 -0.0144853 -0.0145831 -0.0133743 -0.0138804 -0.0136444 -0.0141835 -0.0138804 -0.0142539 -0.0141835 -0.0145799 -0.0136444 -0.0141835 -0.0140117 -0.0145957 -0.0141835 -0.0145799 -0.0145957 -0.0150241 -0.0142539 -0.0144853 -0.0145799 -0.0148229 -0.0144853 -0.0145831 -0.0148229 -0.01492 -0.0145799 -0.0148229 -0.0150241 -0.0152845 -0.0148229 -0.01492 -0.0152845 -0.0153842 -0.0142641 -0.0141952 -0.014363 -0.014281 -0.0141952 -0.0143062 -0.014281 -0.014367 -0.014363 -0.014281 -0.0145831 -0.0144867 -0.014281 -0.014367 -0.0144867 -0.0145491 -0.0143062 -0.0127846 -0.014367 -0.0128013 -0.0127846 -0.0152966 -0.0128013 -0.0152773 -0.014367 -0.0128013 -0.0145491 -0.0129354 -0.0128013 -0.0152773 -0.0129354 -0.0153923 -0.0145831 -0.0144867 -0.01492 -0.0148093 -0.0144867 -0.0145491 -0.0148093 -0.0148512 -0.01492 -0.0148093 -0.0153842 -0.0152597 -0.0148093 -0.0148512 -0.0152597 -0.0152829 -0.0145491 -0.0129354 -0.0148512 -0.0131796 -0.0129354 -0.0153923 -0.0131796 -0.0156496 -0.0148512 -0.0131796 -0.0152829 -0.0135409 -0.0131796 -0.0156496 -0.0135409 -0.0160474 -0.00612898 -0.00721712 -0.00591027 -0.00707958 -0.00721712 -0.00831907 -0.00707958 -0.00826805 -0.00591027 -0.00707958 -0.00562884 -0.00689725 -0.00707958 -0.00826805 -0.00689725 -0.00819179 -0.00831907 -0.00941489 -0.00826805 -0.0094544 -0.00941489 -0.0104829 -0.0094544 -0.0106151 -0.00826805 -0.0094544 -0.00819179 -0.00948969 -0.0094544 -0.0106151 -0.00948969 -0.0107652 -0.00562884 -0.00689725 -0.0052684 -0.00665446 -0.00689725 -0.00819179 -0.00665446 -0.00807572 -0.0052684 -0.00665446 -0.00480847 -0.00633106 -0.00665446 -0.00807572 -0.00633106 -0.00790064 -0.00819179 -0.00948969 -0.00807572 -0.00950789 -0.00948969 -0.0107652 -0.00950789 -0.0109227 -0.00807572 -0.00950789 -0.00790064 -0.00949146 -0.00950789 -0.0109227 -0.00949146 -0.0110728 -0.0104829 -0.0115002 -0.0106151 -0.0117246 -0.0115002 -0.012443 -0.0117246 -0.0127564 -0.0106151 -0.0117246 -0.0107652 -0.0119899 -0.0117246 -0.0127564 -0.0119899 -0.0131336 -0.012443 -0.0132876 -0.0127564 -0.0136835 -0.0132876 -0.0140117 -0.0136835 -0.0144801 -0.0127564 -0.0136835 -0.0131336 -0.014165 -0.0136835 -0.0144801 -0.014165 -0.015054 -0.0107652 -0.0119899 -0.0109227 -0.0122885 -0.0119899 -0.0131336 -0.0122885 -0.0135705 -0.0109227 -0.0122885 -0.0110728 -0.012609 -0.0122885 -0.0135705 -0.012609 -0.0140603 -0.0131336 -0.014165 -0.0135705 -0.0147323 -0.014165 -0.015054 -0.0147323 -0.0157379 -0.0135705 -0.0147323 -0.0140603 -0.0153836 -0.0147323 -0.0157379 -0.0153836 -0.0165354 -0.00480847 -0.00633106 -0.00422361 -0.00590153 -0.00633106 -0.00790064 -0.00590153 -0.00764152 -0.00422361 -0.00590153 -0.00348288 -0.00533408 -0.00590153 -0.00764152 -0.00533408 -0.00726635 -0.00790064 -0.00949146 -0.00764152 -0.00941679 -0.00949146 -0.0110728 -0.00941679 -0.0111942 -0.00764152 -0.00941679 -0.00726635 -0.00925258 -0.00941679 -0.0111942 -0.00925258 -0.0112579 -0.00348288 -0.00533408 -0.00254949 -0.00458982 -0.00533408 -0.00726635 -0.00458982 -0.00673471 -0.00254949 -0.00458982 -0.00138075 -0.00362245 -0.00458982 -0.00673471 -0.00362245 -0.00599674 -0.00726635 -0.00925258 -0.00673471 -0.00895792 -0.00925258 -0.0112579 -0.00895792 -0.0112241 -0.00673471 -0.00895792 -0.00599674 -0.0084802 -0.00895792 -0.0112241 -0.0084802 -0.0110389 -0.0110728 -0.012609 -0.0111942 -0.0129343 -0.012609 -0.0140603 -0.0129343 -