# vtk DataFile Version 3.0
#This file was generated by the deal.II library on 2026/1/5 at 14:19:35
ASCII
DATASET UNSTRUCTURED_GRID

POINTS 4096 double
0 0 0
0.03125 0 0
0 0.03125 0
0.03125 0.03125 0
0.03125 0 0
0.0625 0 0
0.03125 0.03125 0
0.0625 0.03125 0
0 0.03125 0
0.03125 0.03125 0
0 0.0625 0
0.03125 0.0625 0
0.03125 0.03125 0
0.0625 0.03125 0
0.03125 0.0625 0
0.0625 0.0625 0
0.0625 0 0
0.09375 0 0
0.0625 0.03125 0
0.09375 0.03125 0
0.09375 0 0
0.125 0 0
0.09375 0.03125 0
0.125 0.03125 0
0.0625 0.03125 0
0.09375 0.03125 0
0.0625 0.0625 0
0.09375 0.0625 0
0.09375 0.03125 0
0.125 0.03125 0
0.09375 0.0625 0
0.125 0.0625 0
0 0.0625 0
0.03125 0.0625 0
0 0.09375 0
0.03125 0.09375 0
0.03125 0.0625 0
0.0625 0.0625 0
0.03125 0.09375 0
0.0625 0.09375 0
0 0.09375 0
0.03125 0.09375 0
0 0.125 0
0.03125 0.125 0
0.03125 0.09375 0
0.0625 0.09375 0
0.03125 0.125 0
0.0625 0.125 0
0.0625 0.0625 0
0.09375 0.0625 0
0.0625 0.09375 0
0.09375 0.09375 0
0.09375 0.0625 0
0.125 0.0625 0
0.09375 0.09375 0
0.125 0.09375 0
0.0625 0.09375 0
0.09375 0.09375 0
0.0625 0.125 0
0.09375 0.125 0
0.09375 0.09375 0
0.125 0.09375 0
0.09375 0.125 0
0.125 0.125 0
0.125 0 0
0.15625 0 0
0.125 0.03125 0
0.15625 0.03125 0
0.15625 0 0
0.1875 0 0
0.15625 0.03125 0
0.1875 0.03125 0
0.125 0.03125 0
0.15625 0.03125 0
0.125 0.0625 0
0.15625 0.0625 0
0.15625 0.03125 0
0.1875 0.03125 0
0.15625 0.0625 0
0.1875 0.0625 0
0.1875 0 0
0.21875 0 0
0.1875 0.03125 0
0.21875 0.03125 0
0.21875 0 0
0.25 0 0
0.21875 0.03125 0
0.25 0.03125 0
0.1875 0.03125 0
0.21875 0.03125 0
0.1875 0.0625 0
0.21875 0.0625 0
0.21875 0.03125 0
0.25 0.03125 0
0.21875 0.0625 0
0.25 0.0625 0
0.125 0.0625 0
0.15625 0.0625 0
0.125 0.09375 0
0.15625 0.09375 0
0.15625 0.0625 0
0.1875 0.0625 0
0.15625 0.09375 0
0.1875 0.09375 0
0.125 0.09375 0
0.15625 0.09375 0
0.125 0.125 0
0.15625 0.125 0
0.15625 0.09375 0
0.1875 0.09375 0
0.15625 0.125 0
0.1875 0.125 0
0.1875 0.0625 0
0.21875 0.0625 0
0.1875 0.09375 0
0.21875 0.09375 0
0.21875 0.0625 0
0.25 0.0625 0
0.21875 0.09375 0
0.25 0.09375 0
0.1875 0.09375 0
0.21875 0.09375 0
0.1875 0.125 0
0.21875 0.125 0
0.21875 0.09375 0
0.25 0.09375 0
0.21875 0.125 0
0.25 0.125 0
0 0.125 0
0.03125 0.125 0
0 0.15625 0
0.03125 0.15625 0
0.03125 0.125 0
0.0625 0.125 0
0.03125 0.15625 0
0.0625 0.15625 0
0 0.15625 0
0.03125 0.15625 0
0 0.1875 0
0.03125 0.1875 0
0.03125 0.15625 0
0.0625 0.15625 0
0.03125 0.1875 0
0.0625 0.1875 0
0.0625 0.125 0
0.09375 0.125 0
0.0625 0.15625 0
0.09375 0.15625 0
0.09375 0.125 0
0.125 0.125 0
0.09375 0.15625 0
0.125 0.15625 0
0.0625 0.15625 0
0.09375 0.15625 0
0.0625 0.1875 0
0.09375 0.1875 0
0.09375 0.15625 0
0.125 0.15625 0
0.09375 0.1875 0
0.125 0.1875 0
0 0.1875 0
0.03125 0.1875 0
0 0.21875 0
0.03125 0.21875 0
0.03125 0.1875 0
0.0625 0.1875 0
0.03125 0.21875 0
0.0625 0.21875 0
0 0.21875 0
0.03125 0.21875 0
0 0.25 0
0.03125 0.25 0
0.03125 0.21875 0
0.0625 0.21875 0
0.03125 0.25 0
0.0625 0.25 0
0.0625 0.1875 0
0.09375 0.1875 0
0.0625 0.21875 0
0.09375 0.21875 0
0.09375 0.1875 0
0.125 0.1875 0
0.09375 0.21875 0
0.125 0.21875 0
0.0625 0.21875 0
0.09375 0.21875 0
0.0625 0.25 0
0.09375 0.25 0
0.09375 0.21875 0
0.125 0.21875 0
0.09375 0.25 0
0.125 0.25 0
0.125 0.125 0
0.15625 0.125 0
0.125 0.15625 0
0.15625 0.15625 0
0.15625 0.125 0
0.1875 0.125 0
0.15625 0.15625 0
0.1875 0.15625 0
0.125 0.15625 0
0.15625 0.15625 0
0.125 0.1875 0
0.15625 0.1875 0
0.15625 0.15625 0
0.1875 0.15625 0
0.15625 0.1875 0
0.1875 0.1875 0
0.1875 0.125 0
0.21875 0.125 0
0.1875 0.15625 0
0.21875 0.15625 0
0.21875 0.125 0
0.25 0.125 0
0.21875 0.15625 0
0.25 0.15625 0
0.1875 0.15625 0
0.21875 0.15625 0
0.1875 0.1875 0
0.21875 0.1875 0
0.21875 0.15625 0
0.25 0.15625 0
0.21875 0.1875 0
0.25 0.1875 0
0.125 0.1875 0
0.15625 0.1875 0
0.125 0.21875 0
0.15625 0.21875 0
0.15625 0.1875 0
0.1875 0.1875 0
0.15625 0.21875 0
0.1875 0.21875 0
0.125 0.21875 0
0.15625 0.21875 0
0.125 0.25 0
0.15625 0.25 0
0.15625 0.21875 0
0.1875 0.21875 0
0.15625 0.25 0
0.1875 0.25 0
0.1875 0.1875 0
0.21875 0.1875 0
0.1875 0.21875 0
0.21875 0.21875 0
0.21875 0.1875 0
0.25 0.1875 0
0.21875 0.21875 0
0.25 0.21875 0
0.1875 0.21875 0
0.21875 0.21875 0
0.1875 0.25 0
0.21875 0.25 0
0.21875 0.21875 0
0.25 0.21875 0
0.21875 0.25 0
0.25 0.25 0
0.25 0 0
0.28125 0 0
0.25 0.03125 0
0.28125 0.03125 0
0.28125 0 0
0.3125 0 0
0.28125 0.03125 0
0.3125 0.03125 0
0.25 0.03125 0
0.28125 0.03125 0
0.25 0.0625 0
0.28125 0.0625 0
0.28125 0.03125 0
0.3125 0.03125 0
0.28125 0.0625 0
0.3125 0.0625 0
0.3125 0 0
0.34375 0 0
0.3125 0.03125 0
0.34375 0.03125 0
0.34375 0 0
0.375 0 0
0.34375 0.03125 0
0.375 0.03125 0
0.3125 0.03125 0
0.34375 0.03125 0
0.3125 0.0625 0
0.34375 0.0625 0
0.34375 0.03125 0
0.375 0.03125 0
0.34375 0.0625 0
0.375 0.0625 0
0.25 0.0625 0
0.28125 0.0625 0
0.25 0.09375 0
0.28125 0.09375 0
0.28125 0.0625 0
0.3125 0.0625 0
0.28125 0.09375 0
0.3125 0.09375 0
0.25 0.09375 0
0.28125 0.09375 0
0.25 0.125 0
0.28125 0.125 0
0.28125 0.09375 0
0.3125 0.09375 0
0.28125 0.125 0
0.3125 0.125 0
0.3125 0.0625 0
0.34375 0.0625 0
0.3125 0.09375 0
0.34375 0.09375 0
0.34375 0.0625 0
0.375 0.0625 0
0.34375 0.09375 0
0.375 0.09375 0
0.3125 0.09375 0
0.34375 0.09375 0
0.3125 0.125 0
0.34375 0.125 0
0.34375 0.09375 0
0.375 0.09375 0
0.34375 0.125 0
0.375 0.125 0
0.375 0 0
0.40625 0 0
0.375 0.03125 0
0.40625 0.03125 0
0.40625 0 0
0.4375 0 0
0.40625 0.03125 0
0.4375 0.03125 0
0.375 0.03125 0
0.40625 0.03125 0
0.375 0.0625 0
0.40625 0.0625 0
0.40625 0.03125 0
0.4375 0.03125 0
0.40625 0.0625 0
0.4375 0.0625 0
0.4375 0 0
0.46875 0 0
0.4375 0.03125 0
0.46875 0.03125 0
0.46875 0 0
0.5 0 0
0.46875 0.03125 0
0.5 0.03125 0
0.4375 0.03125 0
0.46875 0.03125 0
0.4375 0.0625 0
0.46875 0.0625 0
0.46875 0.03125 0
0.5 0.03125 0
0.46875 0.0625 0
0.5 0.0625 0
0.375 0.0625 0
0.40625 0.0625 0
0.375 0.09375 0
0.40625 0.09375 0
0.40625 0.0625 0
0.4375 0.0625 0
0.40625 0.09375 0
0.4375 0.09375 0
0.375 0.09375 0
0.40625 0.09375 0
0.375 0.125 0
0.40625 0.125 0
0.40625 0.09375 0
0.4375 0.09375 0
0.40625 0.125 0
0.4375 0.125 0
0.4375 0.0625 0
0.46875 0.0625 0
0.4375 0.09375 0
0.46875 0.09375 0
0.46875 0.0625 0
0.5 0.0625 0
0.46875 0.09375 0
0.5 0.09375 0
0.4375 0.09375 0
0.46875 0.09375 0
0.4375 0.125 0
0.46875 0.125 0
0.46875 0.09375 0
0.5 0.09375 0
0.46875 0.125 0
0.5 0.125 0
0.25 0.125 0
0.28125 0.125 0
0.25 0.15625 0
0.28125 0.15625 0
0.28125 0.125 0
0.3125 0.125 0
0.28125 0.15625 0
0.3125 0.15625 0
0.25 0.15625 0
0.28125 0.15625 0
0.25 0.1875 0
0.28125 0.1875 0
0.28125 0.15625 0
0.3125 0.15625 0
0.28125 0.1875 0
0.3125 0.1875 0
0.3125 0.125 0
0.34375 0.125 0
0.3125 0.15625 0
0.34375 0.15625 0
0.34375 0.125 0
0.375 0.125 0
0.34375 0.15625 0
0.375 0.15625 0
0.3125 0.15625 0
0.34375 0.15625 0
0.3125 0.1875 0
0.34375 0.1875 0
0.34375 0.15625 0
0.375 0.15625 0
0.34375 0.1875 0
0.375 0.1875 0
0.25 0.1875 0
0.28125 0.1875 0
0.25 0.21875 0
0.28125 0.21875 0
0.28125 0.1875 0
0.3125 0.1875 0
0.28125 0.21875 0
0.3125 0.21875 0
0.25 0.21875 0
0.28125 0.21875 0
0.25 0.25 0
0.28125 0.25 0
0.28125 0.21875 0
0.3125 0.21875 0
0.28125 0.25 0
0.3125 0.25 0
0.3125 0.1875 0
0.34375 0.1875 0
0.3125 0.21875 0
0.34375 0.21875 0
0.34375 0.1875 0
0.375 0.1875 0
0.34375 0.21875 0
0.375 0.21875 0
0.3125 0.21875 0
0.34375 0.21875 0
0.3125 0.25 0
0.34375 0.25 0
0.34375 0.21875 0
0.375 0.21875 0
0.34375 0.25 0
0.375 0.25 0
0.375 0.125 0
0.40625 0.125 0
0.375 0.15625 0
0.40625 0.15625 0
0.40625 0.125 0
0.4375 0.125 0
0.40625 0.15625 0
0.4375 0.15625 0
0.375 0.15625 0
0.40625 0.15625 0
0.375 0.1875 0
0.40625 0.1875 0
0.40625 0.15625 0
0.4375 0.15625 0
0.40625 0.1875 0
0.4375 0.1875 0
0.4375 0.125 0
0.46875 0.125 0
0.4375 0.15625 0
0.46875 0.15625 0
0.46875 0.125 0
0.5 0.125 0
0.46875 0.15625 0
0.5 0.15625 0
0.4375 0.15625 0
0.46875 0.15625 0
0.4375 0.1875 0
0.46875 0.1875 0
0.46875 0.15625 0
0.5 0.15625 0
0.46875 0.1875 0
0.5 0.1875 0
0.375 0.1875 0
0.40625 0.1875 0
0.375 0.21875 0
0.40625 0.21875 0
0.40625 0.1875 0
0.4375 0.1875 0
0.40625 0.21875 0
0.4375 0.21875 0
0.375 0.21875 0
0.40625 0.21875 0
0.375 0.25 0
0.40625 0.25 0
0.40625 0.21875 0
0.4375 0.21875 0
0.40625 0.25 0
0.4375 0.25 0
0.4375 0.1875 0
0.46875 0.1875 0
0.4375 0.21875 0
0.46875 0.21875 0
0.46875 0.1875 0
0.5 0.1875 0
0.46875 0.21875 0
0.5 0.21875 0
0.4375 0.21875 0
0.46875 0.21875 0
0.4375 0.25 0
0.46875 0.25 0
0.46875 0.21875 0
0.5 0.21875 0
0.46875 0.25 0
0.5 0.25 0
0 0.25 0
0.03125 0.25 0
0 0.28125 0
0.03125 0.28125 0
0.03125 0.25 0
0.0625 0.25 0
0.03125 0.28125 0
0.0625 0.28125 0
0 0.28125 0
0.03125 0.28125 0
0 0.3125 0
0.03125 0.3125 0
0.03125 0.28125 0
0.0625 0.28125 0
0.03125 0.3125 0
0.0625 0.3125 0
0.0625 0.25 0
0.09375 0.25 0
0.0625 0.28125 0
0.09375 0.28125 0
0.09375 0.25 0
0.125 0.25 0
0.09375 0.28125 0
0.125 0.28125 0
0.0625 0.28125 0
0.09375 0.28125 0
0.0625 0.3125 0
0.09375 0.3125 0
0.09375 0.28125 0
0.125 0.28125 0
0.09375 0.3125 0
0.125 0.3125 0
0 0.3125 0
0.03125 0.3125 0
0 0.34375 0
0.03125 0.34375 0
0.03125 0.3125 0
0.0625 0.3125 0
0.03125 0.34375 0
0.0625 0.34375 0
0 0.34375 0
0.03125 0.34375 0
0 0.375 0
0.03125 0.375 0
0.03125 0.34375 0
0.0625 0.34375 0
0.03125 0.375 0
0.0625 0.375 0
0.0625 0.3125 0
0.09375 0.3125 0
0.0625 0.34375 0
0.09375 0.34375 0
0.09375 0.3125 0
0.125 0.3125 0
0.09375 0.34375 0
0.125 0.34375 0
0.0625 0.34375 0
0.09375 0.34375 0
0.0625 0.375 0
0.09375 0.375 0
0.09375 0.34375 0
0.125 0.34375 0
0.09375 0.375 0
0.125 0.375 0
0.125 0.25 0
0.15625 0.25 0
0.125 0.28125 0
0.15625 0.28125 0
0.15625 0.25 0
0.1875 0.25 0
0.15625 0.28125 0
0.1875 0.28125 0
0.125 0.28125 0
0.15625 0.28125 0
0.125 0.3125 0
0.15625 0.3125 0
0.15625 0.28125 0
0.1875 0.28125 0
0.15625 0.3125 0
0.1875 0.3125 0
0.1875 0.25 0
0.21875 0.25 0
0.1875 0.28125 0
0.21875 0.28125 0
0.21875 0.25 0
0.25 0.25 0
0.21875 0.28125 0
0.25 0.28125 0
0.1875 0.28125 0
0.21875 0.28125 0
0.1875 0.3125 0
0.21875 0.3125 0
0.21875 0.28125 0
0.25 0.28125 0
0.21875 0.3125 0
0.25 0.3125 0
0.125 0.3125 0
0.15625 0.3125 0
0.125 0.34375 0
0.15625 0.34375 0
0.15625 0.3125 0
0.1875 0.3125 0
0.15625 0.34375 0
0.1875 0.34375 0
0.125 0.34375 0
[...]
POINT_DATA 4096
SCALARS p double 1
LOOKUP_TABLE default
7.84299e-06 9.72371e-05 -7.85745e-05 1.43109e-05 9.72371e-05 0.000341791 1.43109e-05 0.000145399 -7.85745e-05 1.43109e-05 -0.000326291 -0.000118558 1.43109e-05 0.000145399 -0.000118558 1.45925e-05 0.000341791 0.000593425 0.000145399 0.000282404 0.000593425 0.000757622 0.000282404 0.000363697 0.000145399 0.000282404 1.45925e-05 0.000141767 0.000282404 0.000363697 0.000141767 0.000201283 -0.000326291 -0.000118558 -0.000587737 -0.000256576 -0.000118558 1.45925e-05 -0.000256576 -0.000106254 -0.000587737 -0.000256576 -0.000769977 -0.000338848 -0.000256576 -0.000106254 -0.000338848 -0.000154879 1.45925e-05 0.000141767 -0.000106254 2.54275e-05 0.000141767 0.000201283 2.54275e-05 7.42693e-05 -0.000106254 2.54275e-05 -0.000154879 -1.18113e-06 2.54275e-05 7.42693e-05 -1.18113e-06 5.32085e-05 0.000757622 0.000792034 0.000363697 0.000360615 0.000792034 0.000683545 0.000360615 0.00025914 0.000363697 0.000360615 0.000201283 0.000176598 0.000360615 0.00025914 0.000176598 5.44517e-05 0.000683545 0.000432532 0.00025914 5.54711e-05 0.000432532 4.56927e-05 5.54711e-05 -0.000248735 0.00025914 5.54711e-05 5.44517e-05 -0.000169821 5.54711e-05 -0.000248735 -0.000169821 -0.000496163 0.000201283 0.000176598 7.42693e-05 4.01357e-05 0.000176598 5.44517e-05 4.01357e-05 -8.55632e-05 7.42693e-05 4.01357e-05 5.32085e-05 1.91202e-05 4.01357e-05 -8.55632e-05 1.91202e-05 -0.000107759 5.44517e-05 -0.000169821 -8.55632e-05 -0.00030562 -0.000169821 -0.000496163 -0.00030562 -0.000620119 -8.55632e-05 -0.00030562 -0.000107759 -0.000327736 -0.00030562 -0.000620119 -0.000327736 -0.000640093 -0.000769977 -0.000338848 -0.000828002 -0.000333403 -0.000338848 -0.000154879 -0.000333403 -0.000109913 -0.000828002 -0.000333403 -0.000741411 -0.00021976 -0.000333403 -0.000109913 -0.00021976 4.98856e-05 -0.000154879 -1.18113e-06 -0.000109913 6.80687e-05 -1.18113e-06 5.32085e-05 6.80687e-05 0.000134439 -0.000109913 6.80687e-05 4.98856e-05 0.000250421 6.80687e-05 0.000134439 0.000250421 0.000331566 -0.000741411 -0.00021976 -0.00050001 1.47459e-05 -0.00021976 4.98856e-05 1.47459e-05 0.000339312 -0.00050001 1.47459e-05 -9.736e-05 0.000379387 1.47459e-05 0.000339312 0.000379387 0.000770535 4.98856e-05 0.000250421 0.000339312 0.000559032 0.000250421 0.000331566 0.000559032 0.000655637 0.000339312 0.000559032 0.000770535 0.00100619 0.000559032 0.000655637 0.00100619 0.00111823 5.32085e-05 1.91202e-05 0.000134439 0.000105557 1.91202e-05 -0.000107759 0.000105557 -1.93122e-05 0.000134439 0.000105557 0.000331566 0.000310007 0.000105557 -1.93122e-05 0.000310007 0.000187936 -0.000107759 -0.000327736 -1.93122e-05 -0.000238306 -0.000327736 -0.000640093 -0.000238306 -0.000549696 -1.93122e-05 -0.000238306 0.000187936 -3.12341e-05 -0.000238306 -0.000549696 -3.12341e-05 -0.000344847 0.000331566 0.000310007 0.000655637 0.000641585 0.000310007 0.000187936 0.000641585 0.000521688 0.000655637 0.000641585 0.00111823 0.00111084 0.000641585 0.000521688 0.00111084 0.000991582 0.000187936 -3.12341e-05 0.000521688 0.000300406 -3.12341e-05 -0.000344847 0.000300406 -1.88787e-05 0.000521688 0.000300406 0.000991582 0.000765517 0.000300406 -1.88787e-05 0.000765517 0.000436603 4.56927e-05 -0.000467729 -0.000248735 -0.000648823 -0.000467729 -0.00109759 -0.000648823 -0.00113854 -0.000248735 -0.000648823 -0.000496163 -0.000921304 -0.000648823 -0.00113854 -0.000921304 -0.00143996 -0.00109759 -0.00183334 -0.00113854 -0.00171054 -0.00183334 -0.00266392 -0.00171054 -0.0023566 -0.00113854 -0.00171054 -0.00143996 -0.00204525 -0.00171054 -0.0023566 -0.00204525 -0.00272905 -0.000496163 -0.000921304 -0.000620119 -0.00102674 -0.000921304 -0.00143996 -0.00102674 -0.00152139 -0.000620119 -0.00102674 -0.000640093 -0.0010426 -0.00102674 -0.00152139 -0.0010426 -0.00153165 -0.00143996 -0.00204525 -0.00152139 -0.00209833 -0.00204525 -0.00272905 -0.00209833 -0.00275047 -0.00152139 -0.00209833 -0.00153165 -0.00210215 -0.00209833 -0.00275047 -0.00210215 -0.00274762 -0.00266392 -0.00357746 -0.0023566 -0.0030675 -0.00357746 -0.00456095 -0.0030675 -0.00383299 -0.0023566 -0.0030675 -0.00272905 -0.00348185 -0.0030675 -0.00383299 -0.00348185 -0.00429288 -0.00456095 -0.00559993 -0.00383299 -0.00464158 -0.00559993 -0.00667829 -0.00464158 -0.00548048 -0.00383299 -0.00464158 -0.00429288 -0.00514992 -0.00464158 -0.00548048 -0.00514992 -0.00603935 -0.00272905 -0.00348185 -0.00275047 -0.00346915 -0.00348185 -0.00429288 -0.00346915 -0.00424438 -0.00275047 -0.00346915 -0.00274762 -0.00346003 -0.00346915 -0.00424438 -0.00346003 -0.00422987 -0.00429288 -0.00514992 -0.00424438 -0.00506465 -0.00514992 -0.00603935 -0.00506465 -0.00591695 -0.00424438 -0.00506465 -0.00422987 -0.00504595 -0.00506465 -0.00591695 -0.00504595 -0.00589555 -0.000640093 -0.0010426 -0.000549696 -0.000951021 -0.0010426 -0.00153165 -0.000951021 -0.00143889 -0.000549696 -0.000951021 -0.000344847 -0.000750114 -0.000951021 -0.00143889 -0.000750114 -0.00124371 -0.00153165 -0.00210215 -0.00143889 -0.00200865 -0.00210215 -0.00274762 -0.00200865 -0.00265436 -0.00143889 -0.00200865 -0.00124371 -0.00182128 -0.00200865 -0.00265436 -0.00182128 -0.00247729 -0.000344847 -0.000750114 -1.88787e-05 -0.000433119 -0.000750114 -0.00124371 -0.000433119 -0.000938985 -1.88787e-05 -0.000433119 0.000436603 8.10527e-06 -0.000433119 -0.000938985 8.10527e-06 -0.00051668 -0.00124371 -0.00182128 -0.000938985 -0.00153238 -0.00182128 -0.00247729 -0.00153238 -0.00220812 -0.000938985 -0.00153238 -0.00051668 -0.00113393 -0.00153238 -0.00220812 -0.00113393 -0.00183882 -0.00274762 -0.00346003 -0.00265436 -0.0033685 -0.00346003 -0.00422987 -0.0033685 -0.00414199 -0.00265436 -0.0033685 -0.00247729 -0.00320464 -0.0033685 -0.00414199 -0.00320464 -0.00399462 -0.00422987 -0.00504595 -0.00414199 -0.004964 -0.00504595 -0.00589555 -0.004964 -0.00582197 -0.00414199 -0.004964 -0.00399462 -0.00483663 -0.004964 -0.00582197 -0.00483663 -0.00571819 -0.00247729 -0.00320464 -0.00220812 -0.00295951 -0.00320464 -0.00399462 -0.00295951 -0.00377816 -0.00220812 -0.00295951 -0.00183882 -0.00262507 -0.00295951 -0.00377816 -0.00262507 -0.00348456 -0.00399462 -0.00483663 -0.00377816 -0.0046536 -0.00483663 -0.00571819 -0.0046536 -0.00557335 -0.00377816 -0.0046536 -0.00348456 -0.00440703 -0.0046536 -0.00557335 -0.00440703 -0.00537996 -9.736e-05 0.000379387 0.000472848 0.000882542 0.000379387 0.000770535 0.000882542 0.00135474 0.000472848 0.000882542 0.00121868 0.00153329 0.000882542 0.00135474 0.00153329 0.00210368 0.000770535 0.00100619 0.00135474 0.0016038 0.00100619 0.00111823 0.0016038 0.00173131 0.00135474 0.0016038 0.00210368 0.00236446 0.0016038 0.00173131 0.00236446 0.00250786 0.00121868 0.00153329 0.00215094 0.00234244 0.00153329 0.00210368 0.00234244 0.00303083 0.00215094 0.00234244 0.00328371 0.00332316 0.00234244 0.00303083 0.00332316 0.00415194 0.00210368 0.00236446 0.00303083 0.00330241 0.00236446 0.00250786 0.00330241 0.00346264 0.00303083 0.00330241 0.00415194 0.00443414 0.00330241 0.00346264 0.00443414 0.00461273 0.00111823 0.00111084 0.00173131 0.00172935 0.00111084 0.000991582 0.00172935 0.00160872 0.00173131 0.00172935 0.00250786 0.00251009 0.00172935 0.00160872 0.00251009 0.00238594 0.000991582 0.000765517 0.00160872 0.00137482 0.000765517 0.000436603 0.00137482 0.00103213 0.00160872 0.00137482 0.00238594 0.00214108 0.00137482 0.00103213 0.00214108 0.00178054 0.00250786 0.00251009 0.00346264 0.00346802 0.00251009 0.00238594 0.00346802 0.00333833 0.00346264 0.00346802 0.00461273 0.00462052 0.00346802 0.00333833 0.00462052 0.00448345 0.00238594 0.00214108 0.00333833 0.0030795 0.00214108 0.00178054 0.0030795 0.00269726 0.00333833 0.0030795 0.00448345 0.00420793 0.0030795 0.00269726 0.00420793 0.00380053 0.00328371 0.00332316 0.00463474 0.00449155 0.00332316 0.00415194 0.00449155 0.00548602 0.00463474 0.00449155 0.00622561 0.00586706 0.00449155 0.00548602 0.00586706 0.00705581 0.00415194 0.00443414 0.00548602 0.00577918 0.00443414 0.00461273 0.00577918 0.00597818 0.00548602 0.00577918 0.00705581 0.00736072 0.00577918 0.00597818 0.00736072 0.00758259 0.00622561 0.00586706 0.00808234 0.00747324 0.00586706 0.00705581 0.00747324 0.00888876 0.00808234 0.00747324 0.0102362 0.00933871 0.00747324 0.00888876 0.00933871 0.0110182 0.00705581 0.00736072 0.00888876 0.0092066 0.00736072 0.00758259 0.0092066 0.00945399 0.00888876 0.0092066 0.0110182 0.0113503 0.0092066 0.00945399 0.0113503 0.0116257 0.00461273 0.00462052 0.00597818 0.00598788 0.00462052 0.00448345 0.00598788 0.00584181 0.00597818 0.00598788 0.00758259 0.0075938 0.00598788 0.00584181 0.0075938 0.00743722 0.00448345 0.00420793 0.00584181 0.00554716 0.00420793 0.00380053 0.00554716 0.00511159 0.00584181 0.00554716 0.00743722 0.00712118 0.00554716 0.00511159 0.00712118 0.00665487 0.00758259 0.0075938 0.00945399 0.00946612 0.0075938 0.00743722 0.00946612 0.00929725 0.00945399 0.00946612 0.0116257 0.0116375 0.00946612 0.00929725 0.0116375 0.0114537 0.00743722 0.00712118 0.00929725 0.00895751 0.00712118 0.00665487 0.00895751 0.00845809 0.00929725 0.00895751 0.0114537 0.0110873 0.00895751 0.00845809 0.0110873 0.0105522 0.000436603 8.10527e-06 0.00103213 0.000584098 8.10527e-06 -0.00051668 0.000584098 3.3884e-05 0.00103213 0.000584098 0.00178054 0.00130787 0.000584098 3.3884e-05 0.00130787 0.000726054 -0.00051668 -0.00113393 3.3884e-05 -0.000615019 -0.00113393 -0.00183882 -0.000615019 -0.00135818 3.3884e-05 -0.000615019 0.000726054 3.81654e-05 -0.000615019 -0.00135818 3.81654e-05 -0.00075191 0.00178054 0.00130787 0.00269726 0.00219522 0.00130787 0.000726054 0.00219522 0.00157617 0.00269726 0.00219522 0.00380053 0.003265 0.00219522 0.00157617 0.003265 0.00260382 0.000726054 3.81654e-05 0.00157617 0.00084263 3.81654e-05 -0.00075191 0.00084263 -2.22931e-06 0.00157617 0.00084263 0.00260382 0.00181888 0.00084263 -2.22931e-06 0.00181888 0.000912447 -0.00183882 -0.00262507 -0.00135818 -0.00218978 -0.00262507 -0.00348456 -0.00218978 -0.0031021 -0.00135818 -0.00218978 -0.00075191 -0.00163892 -0.00218978 -0.0031021 -0.00163892 -0.0026157 -0.00348456 -0.00440703 -0.0031021 -0.00408516 -0.00440703 -0.00537996 -0.00408516 -0.00512642 -0.0031021 -0.00408516 -0.0026157 -0.00367269 -0.00408516 -0.00512642 -0.00367269 -0.00479745 -0.00075191 -0.00163892 -2.22931e-06 -0.000953921 -0.00163892 -0.0026157 -0.000953921 -0.00200607 -2.22931e-06 -0.000953921 0.000912447 -0.00011205 -0.000953921 -0.00200607 -0.00011205 -0.00124933 -0.0026157 -0.00367269 -0.00200607 -0.00314978 -0.00367269 -0.00479745 -0.00314978 -0.004373 -0.00200607 -0.00314978 -0.00124933 -0.00249157 -0.00314978 -0.004373 -0.00249157 -0.00382753 0.00380053 0.003265 0.00511159 0.00453911 0.003265 0.00260382 0.00453911 0.00383185 0.00511159 0.00453911 0.00665487 0.00604269 0.00453911 0.00383185 0.00604269 0.00528644 0.00260382 0.00181888 0.00383185 0.00299096 0.00181888 0.000912447 0.00299096 0.00201758 0.00383185 0.00299096 0.00528644 0.00438642 0.00299096 0.00201758 0.00438642 0.00334244 0.00665487 0.00604269 0.00845809 0.00780402 0.00604269 0.00528644 0.00780402 0.00699689 0.00845809 0.00780402 0.0105522 0.00985436 0.00780402 0.00699689 0.00985436 0.0089953 0.00528644 0.00438642 0.00699689 0.00603608 0.00438642 0.00334244 0.00603608 0.00491988 0.00699689 0.00603608 0.0089953 0.00797346 0.00603608 0.00491988 0.00797346 0.00678554 0.000912447 -0.00011205 0.00201758 0.000913744 -0.00011205 -0.00124933 0.000913744 -0.000316771 0.00201758 0.000913744 0.00334244 0.00215484 0.000913744 -0.000316771 0.00215484 0.000825385 -0.00124933 -0.00249157 -0.000316771 -0.00166768 -0.00249157 -0.00382753 -0.00166768 -0.00312921 -0.000316771 -0.00166768 0.000825385 -0.000641823 -0.00166768 -0.00312921 -0.000641823 -0.00223925 0.00334244 0.00215484 0.00491988 0.00364661 0.00215484 0.000825385 0.00364661 0.0022156 0.00491988 0.00364661 0.00678554 0.00542768 0.00364661 0.0022156 0.00542768 0.00389633 0.000825385 -0.000641823 0.0022156 0.000628083 -0.000641823 -0.00223925 0.000628083 -0.00111165 0.0022156 0.000628083 0.00389633 0.0021892 0.000628083 -0.00111165 0.0021892 0.000306336 -0.00667829 -0.00777826 -0.00548048 -0.00633563 -0.00777826 -0.00888044 -0.00633563 -0.00719168 -0.00548048 -0.00633563 -0.00603935 -0.00694611 -0.00633563 -0.00719168 -0.00694611 -0.00785378 -0.00888044 -0.009964 -0.00719168 -0.00803228 -0.009964 -0.0110069 -0.00803228 -0.00884025 -0.00719168 -0.00803228 -0.00785378 -0.00874491 -0.00803228 -0.00884025 -0.00874491 -0.00960119 -0.00603935 -0.00694611 -0.00591695 -0.00678681 -0.00694611 -0.00785378 -0.00678681 -0.00765846 -0.00591695 -0.00678681 -0.00589555 -0.00676432 -0.00678681 -0.00765846 -0.00676432 -0.00763647 -0.00785378 -0.00874491 -0.00765846 -0.00851497 -0.00874491 -0.00960119 -0.00851497 -0.00933863 -0.00765846 -0.00851497 -0.00763647 -0.00849498 -0.00851497 -0.00933863 -0.00849498 -0.00932195 -0.0110069 -0.0119862 -0.00884025 -0.0095979 -0.0119862 -0.0128786 -0.0095979 -0.0102875 -0.00884025 -0.0095979 -0.00960119 -0.0104039 -0.0095979 -0.0102875 -0.0104039 -0.0111347 -0.0128786 -0.013661 -0.0102875 -0.0108921 -0.013661 -0.0143116 -0.0108921 -0.0113959 -0.0102875 -0.0108921 -0.0111347 -0.0117758 -0.0108921 -0.0113959 -0.0117758 -0.0123117 -0.00960119 -0.0104039 -0.00933863 -0.0101114 -0.0104039 -0.0111347 -0.0101114 -0.0108155 -0.00933863 -0.0101114 -0.00932195 -0.010099 -0.0101114 -0.0108155 -0.010099 -0.0108081 -0.0111347 -0.0117758 -0.0108155 -0.0114342 -0.0117758 -0.0123117 -0.0114342 -0.0119527 -0.0108155 -0.0114342 -0.0108081 -0.0114321 -0.0114342 -0.0119527 -0.0114321 -0.011956 -0.00589555 -0.00676432 -0.00582197 -0.00670157 -0.00676432 -0.00763647 -0.00670157 -0.00758687 -0.00582197 -0.00670157 -0.00571819 -0.00662478 -0.00670157 -0.00758687 -0.00662478 -0.00754013 -0.00763647 -0.00849498 -0.00758687 -0.00846048 -0.00849498 -0.00932195 -0.00846048 -0.00930398 -0.00758687 -0.00846048 -0.00754013 -0.00844618 -0.00846048 -0.00930398 -0.00844618 -0.00932354 -0.00571819 -0.00662478 -0.00557335 -0.00652265 -0.00662478 -0.00754013 -0.00652265 -0.00748462 -0.00557335 -0.00652265 -0.00537996 -0.00638822 -0.00652265 -0.00748462 -0.00638822 -0.00741418 -0.00754013 -0.00844618 -0.00748462 -0.00844023 -0.00844618 -0.00932354 -0.00844023 -0.00936877 -0.00748462 -0.00844023 -0.00741418 -0.00843757 -0.00844023 -0.00936877 -0.00843757 -0.00943594 -0.00932195 -0.010099 -0.00930398 -0.0100983 -0.010099 -0.0108081 -0.0100983 -0.0108245 -0.00930398 -0.0100983 -0.00932354 -0.0101519 -0.0100983 -0.0108245 -0.0101519 -0.0109109 -0.0108081 -0.0114321 -0.0108245 -0.0114646 -0.0114321 -0.011956 -0.0114646 -0.0120024 -0.0108245 -0.0114646 -0.0109109 -0.011581 -0.0114646 -0.0120024 -0.011581 -0.0121444 -0.00932354 -0.0101519 -0.00936877 -0.0102482 -0.0101519 -0.0109109 -0.0102482 -0.0110562 -0.00936877 -0.0102482 -0.00943594 -0.0103851 -0.0102482 -0.0110562 -0.0103851 -0.0112598 -0.0109109 -0.011581 -0.0110562 -0.0117708 -0.011581 -0.0121444 -0.0117708 -0.0123719 -0.0110562 -0.0117708 -0.0112598 -0.0120352 -0.0117708 -0.0123719 -0.0120352 -0.0126883 -0.0143116 -0.0148108 -0.0113959 -0.011786 -0.0148108 -0.0151428 -0.011786 -0.0120536 -0.0113959 -0.011786 -0.0123117 -0.0127298 -0.011786 -0.0120536 -0.0127298 -0.0130226 -0.0151428 -0.0153004 -0.0120536 -0.0121935 -0.0153004 -0.0152794 -0.0121935 -0.0122239 -0.0120536 -0.0121935 -0.0130226 -0.0131867 -0.0121935 -0.0122239 -0.0131867 -0.0132386 -0.0123117 -0.0127298 -0.0119527 -0.0123595 -0.0127298 -0.0130226 -0.0123595 -0.0126476 -0.0119527 -0.0123595 -0.011956 -0.0123678 -0.0123595 -0.0126476 -0.0123678 -0.01266 -0.0130226 -0.0131867 -0.0126476 -0.0128138 -0.0131867 -0.0132386 -0.0128138 -0.0128733 -0.0126476 -0.0128138 -0.01266 -0.0128284 -0.0128138 -0.0128733 -0.0128284 -0.0128859 -0.0152794 -0.0151342 -0.0122239 -0.0120994 -0.0151342 -0.0148642 -0.0120994 -0.0121938 -0.0122239 -0.0120994 -0.0132386 -0.0131416 -0.0120994 -0.0121938 -0.0131416 -0.0132295 -0.0148642 -0.0139024 -0.0121938 -0.0108631 -0.0139024 -0.0151396 -0.0108631 -0.013715 -0.0121938 -0.0108631 -0.0132295 -0.0119102 -0.0108631 -0.013715 -0.0119102 -0.0141505 -0.0132386 -0.0131416 -0.0128733 -0.0127822 -0.0131416 -0.0132295 -0.0127822 -0.0128735 -0.0128733 -0.0127822 -0.0128859 -0.0127859 -0.0127822 -0.0128735 -0.0127859 -0.0128479 -0.0132295 -0.0119102 -0.0128735 -0.0115188 -0.0119102 -0.0141505 -0.0115188 -0.01387 -0.0128735 -0.0115188 -0.0128479 -0.0114622 -0.0115188 -0.01387 -0.0114622 -0.0136397 -0.011956 -0.0123678 -0.0120024 -0.012425 -0.0123678 -0.01266 -0.012425 -0.0127238 -0.0120024 -0.012425 -0.0121444 -0.0125864 -0.012425 -0.0127238 -0.0125864 -0.0128969 -0.01266 -0.0128284 -0.0127238 -0.0128932 -0.0128284 -0.0128859 -0.0128932 -0.0129441 -0.0127238 -0.0128932 -0.0128969 -0.0130688 -0.0128932 -0.0129441 -0.0130688 -0.0131119 -0.0121444 -0.0125864 -0.0123719 -0.0128428 -0.0125864 -0.0128969 -0.0128428 -0.0131714 -0.0123719 -0.0128428 -0.0126883 -0.0131994 -0.0128428 -0.0131714 -0.0131994 -0.0135541 -0.0128969 -0.0130688 -0.0131714 -0.0133491 -0.0130688 -0.0131119 -0.0133491 -0.0133851 -0.0131714 -0.0133491 -0.0135541 -0.0137423 -0.0133491 -0.0133851 -0.0137423 -0.0137731 -0.0128859 -0.0127859 -0.0129441 -0.0128274 -0.0127859 -0.0128479 -0.0128274 -0.0128589 -0.0129441 -0.0128274 -0.0131119 -0.0129756 -0.0128274 -0.0128589 -0.0129756 -0.0129766 -0.0128479 -0.0114622 -0.0128589 -0.0114298 -0.0114622 -0.0136397 -0.0114298 -0.0135511 -0.0128589 -0.0114298 -0.0129766 -0.0115006 -0.0114298 -0.0135511 -0.0115006 -0.0135815 -0.0131119 -0.0129756 -0.0133851 -0.0132282 -0.0129756 -0.0129766 -0.0132282 -0.0132006 -0.0133851 -0.0132282 -0.0137731 -0.013595 -0.0132282 -0.0132006 -0.013595 -0.0135395 -0.0129766 -0.0115006 -0.0132006 -0.0116688 -0.0115006 -0.0135815 -0.0116688 -0.0137391 -0.0132006 -0.0116688 -0.0135395 -0.0119404 -0.0116688 -0.0137391 -0.0119404 -0.0140211 -0.00537996 -0.00638822 -0.00512642 -0.00621037 -0.00638822 -0.00741418 -0.00621037 -0.00731848 -0.00512642 -0.00621037 -0.00479745 -0.00597422 -0.00621037 -0.00731848 -0.00597422 -0.00718361 -0.00741418 -0.00843757 -0.00731848 -0.0084291 -0.00843757 -0.00943594 -0.0084291 -0.00951762 -0.00731848 -0.0084291 -0.00718361 -0.0084024 -0.0084291 -0.00951762 -0.0084024 -0.00960353 -0.00479745 -0.00597422 -0.004373 -0.00565997 -0.00597422 -0.00718361 -0.00565997 -0.00699061 -0.004373 -0.00565997 -0.00382753 -0.0052419 -0.00565997 -0.00699061 -0.0052419 -0.00671427 -0.00718361 -0.0084024 -0.00699061 -0.00834015 -0.0084024 -0.00960353 -0.00834015 -0.00967885 -0.00699061 -0.00834015 -0.00671427 -0.00821858 -0.00834015 -0.00967885 -0.00821858 -0.00972239 -0.00943594 -0.0103851 -0.00951762 -0.010557 -0.0103851 -0.0112598 -0.010557 -0.0115187 -0.00951762 -0.010557 -0.00960353 -0.0107566 -0.010557 -0.0115187 -0.0107566 -0.0118289 -0.0112598 -0.0120352 -0.0115187 -0.0123741 -0.0120352 -0.0126883 -0.0123741 -0.013096 -0.0115187 -0.0123741 -0.0118289 -0.0127867 -0.0123741 -0.013096 -0.0127867 -0.0135977 -0.00960353 -0.0107566 -0.00967885 -0.0109724 -0.0107566 -0.0118289 -0.0109724 -0.0121828 -0.00967885 -0.0109724 -0.00972239 -0.011187 -0.0109724 -0.0121828 -0.011187 -0.0125684 -0.0118289 -0.0127867 -0.0121828 -0.0132703 -0.0127867 -0.0135977 -0.0132703 -0.0141957 -0.0121828 -0.0132703 -0.0125684 -0.0138188 -0.0132703 -0.0141957 -0.0138188 -0.0148903 -0.00382753 -0.0052419 -0.00312921 -0.00468716 -0.0052419 -0.00671427 -0.00468716 -0.00632153 -0.00312921 -0.00468716 -0.00223925 -0.00395477 -0.00468716 -0.00632153 -0.00395477 -0.0057699 -0.00671427 -0.00821858 -0.00632153 -0.00800553 -0.00821858 -0.00972239 -0.00800553 -0.00970434 -0.00632153 -0.00800553 -0.0057699 -0.00765823 -0.00800553 -0.00970434 -0.00765823 -0.00958346 -0.00223925 -0.00395477 -0.00111165 -0.00299477 -0.00395477 -0.0057699 -0.00299477 -0.00500592 -0.00111165 -0.00299477 0.000306336 -0.00174821 -0.00299477 -0.00500592 -0.00174821 -0.00396421 -0.0057699 -0.00765823 -0.00500592 -0.00712079 -0.00765823 -0.00958346 -0.00712079 -0.00930338 -0.00500592 -0.00712079 -0.00396421 -0.00632209 -0.00712079 -0.00930338 -0.00632209 -0.00878904 -0.00972239 -0.011