# vtk DataFile Version 3.0
#This file was generated by the deal.II library on 2026/1/5 at 14:19:33
ASCII
DATASET UNSTRUCTURED_GRID

POINTS 4096 double
0 0 0
0.03125 0 0
0 0.03125 0
0.03125 0.03125 0
0.03125 0 0
0.0625 0 0
0.03125 0.03125 0
0.0625 0.03125 0
0 0.03125 0
0.03125 0.03125 0
0 0.0625 0
0.03125 0.0625 0
0.03125 0.03125 0
0.0625 0.03125 0
0.03125 0.0625 0
0.0625 0.0625 0
0.0625 0 0
0.09375 0 0
0.0625 0.03125 0
0.09375 0.03125 0
0.09375 0 0
0.125 0 0
0.09375 0.03125 0
0.125 0.03125 0
0.0625 0.03125 0
0.09375 0.03125 0
0.0625 0.0625 0
0.09375 0.0625 0
0.09375 0.03125 0
0.125 0.03125 0
0.09375 0.0625 0
0.125 0.0625 0
0 0.0625 0
0.03125 0.0625 0
0 0.09375 0
0.03125 0.09375 0
0.03125 0.0625 0
0.0625 0.0625 0
0.03125 0.09375 0
0.0625 0.09375 0
0 0.09375 0
0.03125 0.09375 0
0 0.125 0
0.03125 0.125 0
0.03125 0.09375 0
0.0625 0.09375 0
0.03125 0.125 0
0.0625 0.125 0
0.0625 0.0625 0
0.09375 0.0625 0
0.0625 0.09375 0
0.09375 0.09375 0
0.09375 0.0625 0
0.125 0.0625 0
0.09375 0.09375 0
0.125 0.09375 0
0.0625 0.09375 0
0.09375 0.09375 0
0.0625 0.125 0
0.09375 0.125 0
0.09375 0.09375 0
0.125 0.09375 0
0.09375 0.125 0
0.125 0.125 0
0.125 0 0
0.15625 0 0
0.125 0.03125 0
0.15625 0.03125 0
0.15625 0 0
0.1875 0 0
0.15625 0.03125 0
0.1875 0.03125 0
0.125 0.03125 0
0.15625 0.03125 0
0.125 0.0625 0
0.15625 0.0625 0
0.15625 0.03125 0
0.1875 0.03125 0
0.15625 0.0625 0
0.1875 0.0625 0
0.1875 0 0
0.21875 0 0
0.1875 0.03125 0
0.21875 0.03125 0
0.21875 0 0
0.25 0 0
0.21875 0.03125 0
0.25 0.03125 0
0.1875 0.03125 0
0.21875 0.03125 0
0.1875 0.0625 0
0.21875 0.0625 0
0.21875 0.03125 0
0.25 0.03125 0
0.21875 0.0625 0
0.25 0.0625 0
0.125 0.0625 0
0.15625 0.0625 0
0.125 0.09375 0
0.15625 0.09375 0
0.15625 0.0625 0
0.1875 0.0625 0
0.15625 0.09375 0
0.1875 0.09375 0
0.125 0.09375 0
0.15625 0.09375 0
0.125 0.125 0
0.15625 0.125 0
0.15625 0.09375 0
0.1875 0.09375 0
0.15625 0.125 0
0.1875 0.125 0
0.1875 0.0625 0
0.21875 0.0625 0
0.1875 0.09375 0
0.21875 0.09375 0
0.21875 0.0625 0
0.25 0.0625 0
0.21875 0.09375 0
0.25 0.09375 0
0.1875 0.09375 0
0.21875 0.09375 0
0.1875 0.125 0
0.21875 0.125 0
0.21875 0.09375 0
0.25 0.09375 0
0.21875 0.125 0
0.25 0.125 0
0 0.125 0
0.03125 0.125 0
0 0.15625 0
0.03125 0.15625 0
0.03125 0.125 0
0.0625 0.125 0
0.03125 0.15625 0
0.0625 0.15625 0
0 0.15625 0
0.03125 0.15625 0
0 0.1875 0
0.03125 0.1875 0
0.03125 0.15625 0
0.0625 0.15625 0
0.03125 0.1875 0
0.0625 0.1875 0
0.0625 0.125 0
0.09375 0.125 0
0.0625 0.15625 0
0.09375 0.15625 0
0.09375 0.125 0
0.125 0.125 0
0.09375 0.15625 0
0.125 0.15625 0
0.0625 0.15625 0
0.09375 0.15625 0
0.0625 0.1875 0
0.09375 0.1875 0
0.09375 0.15625 0
0.125 0.15625 0
0.09375 0.1875 0
0.125 0.1875 0
0 0.1875 0
0.03125 0.1875 0
0 0.21875 0
0.03125 0.21875 0
0.03125 0.1875 0
0.0625 0.1875 0
0.03125 0.21875 0
0.0625 0.21875 0
0 0.21875 0
0.03125 0.21875 0
0 0.25 0
0.03125 0.25 0
0.03125 0.21875 0
0.0625 0.21875 0
0.03125 0.25 0
0.0625 0.25 0
0.0625 0.1875 0
0.09375 0.1875 0
0.0625 0.21875 0
0.09375 0.21875 0
0.09375 0.1875 0
0.125 0.1875 0
0.09375 0.21875 0
0.125 0.21875 0
0.0625 0.21875 0
0.09375 0.21875 0
0.0625 0.25 0
0.09375 0.25 0
0.09375 0.21875 0
0.125 0.21875 0
0.09375 0.25 0
0.125 0.25 0
0.125 0.125 0
0.15625 0.125 0
0.125 0.15625 0
0.15625 0.15625 0
0.15625 0.125 0
0.1875 0.125 0
0.15625 0.15625 0
0.1875 0.15625 0
0.125 0.15625 0
0.15625 0.15625 0
0.125 0.1875 0
0.15625 0.1875 0
0.15625 0.15625 0
0.1875 0.15625 0
0.15625 0.1875 0
0.1875 0.1875 0
0.1875 0.125 0
0.21875 0.125 0
0.1875 0.15625 0
0.21875 0.15625 0
0.21875 0.125 0
0.25 0.125 0
0.21875 0.15625 0
0.25 0.15625 0
0.1875 0.15625 0
0.21875 0.15625 0
0.1875 0.1875 0
0.21875 0.1875 0
0.21875 0.15625 0
0.25 0.15625 0
0.21875 0.1875 0
0.25 0.1875 0
0.125 0.1875 0
0.15625 0.1875 0
0.125 0.21875 0
0.15625 0.21875 0
0.15625 0.1875 0
0.1875 0.1875 0
0.15625 0.21875 0
0.1875 0.21875 0
0.125 0.21875 0
0.15625 0.21875 0
0.125 0.25 0
0.15625 0.25 0
0.15625 0.21875 0
0.1875 0.21875 0
0.15625 0.25 0
0.1875 0.25 0
0.1875 0.1875 0
0.21875 0.1875 0
0.1875 0.21875 0
0.21875 0.21875 0
0.21875 0.1875 0
0.25 0.1875 0
0.21875 0.21875 0
0.25 0.21875 0
0.1875 0.21875 0
0.21875 0.21875 0
0.1875 0.25 0
0.21875 0.25 0
0.21875 0.21875 0
0.25 0.21875 0
0.21875 0.25 0
0.25 0.25 0
0.25 0 0
0.28125 0 0
0.25 0.03125 0
0.28125 0.03125 0
0.28125 0 0
0.3125 0 0
0.28125 0.03125 0
0.3125 0.03125 0
0.25 0.03125 0
0.28125 0.03125 0
0.25 0.0625 0
0.28125 0.0625 0
0.28125 0.03125 0
0.3125 0.03125 0
0.28125 0.0625 0
0.3125 0.0625 0
0.3125 0 0
0.34375 0 0
0.3125 0.03125 0
0.34375 0.03125 0
0.34375 0 0
0.375 0 0
0.34375 0.03125 0
0.375 0.03125 0
0.3125 0.03125 0
0.34375 0.03125 0
0.3125 0.0625 0
0.34375 0.0625 0
0.34375 0.03125 0
0.375 0.03125 0
0.34375 0.0625 0
0.375 0.0625 0
0.25 0.0625 0
0.28125 0.0625 0
0.25 0.09375 0
0.28125 0.09375 0
0.28125 0.0625 0
0.3125 0.0625 0
0.28125 0.09375 0
0.3125 0.09375 0
0.25 0.09375 0
0.28125 0.09375 0
0.25 0.125 0
0.28125 0.125 0
0.28125 0.09375 0
0.3125 0.09375 0
0.28125 0.125 0
0.3125 0.125 0
0.3125 0.0625 0
0.34375 0.0625 0
0.3125 0.09375 0
0.34375 0.09375 0
0.34375 0.0625 0
0.375 0.0625 0
0.34375 0.09375 0
0.375 0.09375 0
0.3125 0.09375 0
0.34375 0.09375 0
0.3125 0.125 0
0.34375 0.125 0
0.34375 0.09375 0
0.375 0.09375 0
0.34375 0.125 0
0.375 0.125 0
0.375 0 0
0.40625 0 0
0.375 0.03125 0
0.40625 0.03125 0
0.40625 0 0
0.4375 0 0
0.40625 0.03125 0
0.4375 0.03125 0
0.375 0.03125 0
0.40625 0.03125 0
0.375 0.0625 0
0.40625 0.0625 0
0.40625 0.03125 0
0.4375 0.03125 0
0.40625 0.0625 0
0.4375 0.0625 0
0.4375 0 0
0.46875 0 0
0.4375 0.03125 0
0.46875 0.03125 0
0.46875 0 0
0.5 0 0
0.46875 0.03125 0
0.5 0.03125 0
0.4375 0.03125 0
0.46875 0.03125 0
0.4375 0.0625 0
0.46875 0.0625 0
0.46875 0.03125 0
0.5 0.03125 0
0.46875 0.0625 0
0.5 0.0625 0
0.375 0.0625 0
0.40625 0.0625 0
0.375 0.09375 0
0.40625 0.09375 0
0.40625 0.0625 0
0.4375 0.0625 0
0.40625 0.09375 0
0.4375 0.09375 0
0.375 0.09375 0
0.40625 0.09375 0
0.375 0.125 0
0.40625 0.125 0
0.40625 0.09375 0
0.4375 0.09375 0
0.40625 0.125 0
0.4375 0.125 0
0.4375 0.0625 0
0.46875 0.0625 0
0.4375 0.09375 0
0.46875 0.09375 0
0.46875 0.0625 0
0.5 0.0625 0
0.46875 0.09375 0
0.5 0.09375 0
0.4375 0.09375 0
0.46875 0.09375 0
0.4375 0.125 0
0.46875 0.125 0
0.46875 0.09375 0
0.5 0.09375 0
0.46875 0.125 0
0.5 0.125 0
0.25 0.125 0
0.28125 0.125 0
0.25 0.15625 0
0.28125 0.15625 0
0.28125 0.125 0
0.3125 0.125 0
0.28125 0.15625 0
0.3125 0.15625 0
0.25 0.15625 0
0.28125 0.15625 0
0.25 0.1875 0
0.28125 0.1875 0
0.28125 0.15625 0
0.3125 0.15625 0
0.28125 0.1875 0
0.3125 0.1875 0
0.3125 0.125 0
0.34375 0.125 0
0.3125 0.15625 0
0.34375 0.15625 0
0.34375 0.125 0
0.375 0.125 0
0.34375 0.15625 0
0.375 0.15625 0
0.3125 0.15625 0
0.34375 0.15625 0
0.3125 0.1875 0
0.34375 0.1875 0
0.34375 0.15625 0
0.375 0.15625 0
0.34375 0.1875 0
0.375 0.1875 0
0.25 0.1875 0
0.28125 0.1875 0
0.25 0.21875 0
0.28125 0.21875 0
0.28125 0.1875 0
0.3125 0.1875 0
0.28125 0.21875 0
0.3125 0.21875 0
0.25 0.21875 0
0.28125 0.21875 0
0.25 0.25 0
0.28125 0.25 0
0.28125 0.21875 0
0.3125 0.21875 0
0.28125 0.25 0
0.3125 0.25 0
0.3125 0.1875 0
0.34375 0.1875 0
0.3125 0.21875 0
0.34375 0.21875 0
0.34375 0.1875 0
0.375 0.1875 0
0.34375 0.21875 0
0.375 0.21875 0
0.3125 0.21875 0
0.34375 0.21875 0
0.3125 0.25 0
0.34375 0.25 0
0.34375 0.21875 0
0.375 0.21875 0
0.34375 0.25 0
0.375 0.25 0
0.375 0.125 0
0.40625 0.125 0
0.375 0.15625 0
0.40625 0.15625 0
0.40625 0.125 0
0.4375 0.125 0
0.40625 0.15625 0
0.4375 0.15625 0
0.375 0.15625 0
0.40625 0.15625 0
0.375 0.1875 0
0.40625 0.1875 0
0.40625 0.15625 0
0.4375 0.15625 0
0.40625 0.1875 0
0.4375 0.1875 0
0.4375 0.125 0
0.46875 0.125 0
0.4375 0.15625 0
0.46875 0.15625 0
0.46875 0.125 0
0.5 0.125 0
0.46875 0.15625 0
0.5 0.15625 0
0.4375 0.15625 0
0.46875 0.15625 0
0.4375 0.1875 0
0.46875 0.1875 0
0.46875 0.15625 0
0.5 0.15625 0
0.46875 0.1875 0
0.5 0.1875 0
0.375 0.1875 0
0.40625 0.1875 0
0.375 0.21875 0
0.40625 0.21875 0
0.40625 0.1875 0
0.4375 0.1875 0
0.40625 0.21875 0
0.4375 0.21875 0
0.375 0.21875 0
0.40625 0.21875 0
0.375 0.25 0
0.40625 0.25 0
0.40625 0.21875 0
0.4375 0.21875 0
0.40625 0.25 0
0.4375 0.25 0
0.4375 0.1875 0
0.46875 0.1875 0
0.4375 0.21875 0
0.46875 0.21875 0
0.46875 0.1875 0
0.5 0.1875 0
0.46875 0.21875 0
0.5 0.21875 0
0.4375 0.21875 0
0.46875 0.21875 0
0.4375 0.25 0
0.46875 0.25 0
0.46875 0.21875 0
0.5 0.21875 0
0.46875 0.25 0
0.5 0.25 0
0 0.25 0
0.03125 0.25 0
0 0.28125 0
0.03125 0.28125 0
0.03125 0.25 0
0.0625 0.25 0
0.03125 0.28125 0
0.0625 0.28125 0
0 0.28125 0
0.03125 0.28125 0
0 0.3125 0
0.03125 0.3125 0
0.03125 0.28125 0
0.0625 0.28125 0
0.03125 0.3125 0
0.0625 0.3125 0
0.0625 0.25 0
0.09375 0.25 0
0.0625 0.28125 0
0.09375 0.28125 0
0.09375 0.25 0
0.125 0.25 0
0.09375 0.28125 0
0.125 0.28125 0
0.0625 0.28125 0
0.09375 0.28125 0
0.0625 0.3125 0
0.09375 0.3125 0
0.09375 0.28125 0
0.125 0.28125 0
0.09375 0.3125 0
0.125 0.3125 0
0 0.3125 0
0.03125 0.3125 0
0 0.34375 0
0.03125 0.34375 0
0.03125 0.3125 0
0.0625 0.3125 0
0.03125 0.34375 0
0.0625 0.34375 0
0 0.34375 0
0.03125 0.34375 0
0 0.375 0
0.03125 0.375 0
0.03125 0.34375 0
0.0625 0.34375 0
0.03125 0.375 0
0.0625 0.375 0
0.0625 0.3125 0
0.09375 0.3125 0
0.0625 0.34375 0
0.09375 0.34375 0
0.09375 0.3125 0
0.125 0.3125 0
0.09375 0.34375 0
0.125 0.34375 0
0.0625 0.34375 0
0.09375 0.34375 0
0.0625 0.375 0
0.09375 0.375 0
0.09375 0.34375 0
0.125 0.34375 0
0.09375 0.375 0
0.125 0.375 0
0.125 0.25 0
0.15625 0.25 0
0.125 0.28125 0
0.15625 0.28125 0
0.15625 0.25 0
0.1875 0.25 0
0.15625 0.28125 0
0.1875 0.28125 0
0.125 0.28125 0
0.15625 0.28125 0
0.125 0.3125 0
0.15625 0.3125 0
0.15625 0.28125 0
0.1875 0.28125 0
0.15625 0.3125 0
0.1875 0.3125 0
0.1875 0.25 0
0.21875 0.25 0
0.1875 0.28125 0
0.21875 0.28125 0
0.21875 0.25 0
0.25 0.25 0
0.21875 0.28125 0
0.25 0.28125 0
0.1875 0.28125 0
0.21875 0.28125 0
0.1875 0.3125 0
0.21875 0.3125 0
0.21875 0.28125 0
0.25 0.28125 0
0.21875 0.3125 0
0.25 0.3125 0
0.125 0.3125 0
0.15625 0.3125 0
0.125 0.34375 0
0.15625 0.34375 0
0.15625 0.3125 0
0.1875 0.3125 0
0.15625 0.34375 0
0.1875 0.34375 0
0.125 0.34375 0
[...]
POINT_DATA 4096
SCALARS p double 1
LOOKUP_TABLE default
1.14656e-05 0.000111593 -8.33571e-05 2.0298e-05 0.000111593 0.000355724 2.0298e-05 0.000147769 -8.33571e-05 2.0298e-05 -0.000329169 -0.000107813 2.0298e-05 0.000147769 -0.000107813 2.1317e-05 0.000355724 0.000576159 0.000147769 0.000262732 0.000576159 0.000682569 0.000262732 0.000304135 0.000147769 0.000262732 2.1317e-05 0.000125395 0.000262732 0.000304135 0.000125395 0.000144879 -0.000329169 -0.000107813 -0.000557474 -0.000221753 -0.000107813 2.1317e-05 -0.000221753 -7.48202e-05 -0.000557474 -0.000221753 -0.000678896 -0.000261784 -0.000221753 -7.48202e-05 -0.000261784 -8.1402e-05 2.1317e-05 0.000125395 -7.48202e-05 3.34161e-05 0.000125395 0.000144879 3.34161e-05 4.46304e-05 -7.48202e-05 3.34161e-05 -8.1402e-05 4.54531e-05 3.34161e-05 4.46304e-05 4.54531e-05 6.1443e-05 0.000682569 0.000640663 0.000304135 0.000247317 0.000640663 0.000444611 0.000247317 8.20412e-05 0.000304135 0.000247317 0.000144879 6.61789e-05 0.000247317 8.20412e-05 6.61789e-05 -0.00012126 0.000444611 9.99507e-05 8.20412e-05 -0.000192333 9.99507e-05 -0.000383494 -0.000192333 -0.000571844 8.20412e-05 -0.000192333 -0.00012126 -0.000419576 -0.000192333 -0.000571844 -0.000419576 -0.000826627 0.000144879 6.61789e-05 4.46304e-05 -3.99611e-05 6.61789e-05 -0.00012126 -3.99611e-05 -0.000227143 4.46304e-05 -3.99611e-05 6.1443e-05 -2.33258e-05 -3.99611e-05 -0.000227143 -2.33258e-05 -0.000211815 -0.00012126 -0.000419576 -0.000227143 -0.000518029 -0.000419576 -0.000826627 -0.000518029 -0.000911165 -0.000227143 -0.000518029 -0.000211815 -0.000503323 -0.000518029 -0.000911165 -0.000503323 -0.000895972 -0.000678896 -0.000261784 -0.000655913 -0.000199258 -0.000261784 -8.1402e-05 -0.000199258 2.03602e-05 -0.000655913 -0.000199258 -0.000475124 -1.75174e-05 -0.000199258 2.03602e-05 -1.75174e-05 0.000248606 -8.1402e-05 4.54531e-05 2.03602e-05 0.000166289 4.54531e-05 6.1443e-05 0.000166289 0.000192012 2.03602e-05 0.000166289 0.000248606 0.000410673 0.000166289 0.000192012 0.000410673 0.000447676 -0.000475124 -1.75174e-05 -0.000131388 0.000293041 -1.75174e-05 0.000248606 0.000293041 0.000615606 -0.000131388 0.000293041 0.0003789 0.000739663 0.000293041 0.000615606 0.000739663 0.00113165 0.000248606 0.000410673 0.000615606 0.000789938 0.000410673 0.000447676 0.000789938 0.000838043 0.000615606 0.000789938 0.00113165 0.00131486 0.000789938 0.000838043 0.00131486 0.00137345 6.1443e-05 -2.33258e-05 0.000192012 0.000110598 -2.33258e-05 -0.000211815 0.000110598 -7.77135e-05 0.000192012 0.000110598 0.000447676 0.000370176 0.000110598 -7.77135e-05 0.000370176 0.000181082 -0.000211815 -0.000503323 -7.77135e-05 -0.000370604 -0.000503323 -0.000895972 -0.000370604 -0.000765503 -7.77135e-05 -0.000370604 0.000181082 -0.000116178 -0.000370604 -0.000765503 -0.000116178 -0.000518307 0.000447676 0.000370176 0.000838043 0.000763385 0.000370176 0.000181082 0.000763385 0.000571466 0.000838043 0.000763385 0.00137345 0.00129974 0.000763385 0.000571466 0.00129974 0.00110212 0.000181082 -0.000116178 0.000571466 0.000266306 -0.000116178 -0.000518307 0.000266306 -0.000148159 0.000571466 0.000266306 0.00110212 0.000784881 0.000266306 -0.000148159 0.000784881 0.0003525 -0.000383494 -0.00099481 -0.000571844 -0.00105029 -0.00099481 -0.00172295 -0.00105029 -0.00162027 -0.000571844 -0.00105029 -0.000826627 -0.00133748 -0.00105029 -0.00162027 -0.00133748 -0.00194538 -0.00172295 -0.00255673 -0.00162027 -0.00227354 -0.00255673 -0.00348439 -0.00227354 -0.003001 -0.00162027 -0.00227354 -0.00194538 -0.00264222 -0.00227354 -0.003001 -0.00264222 -0.00341862 -0.000826627 -0.00133748 -0.000911165 -0.00140276 -0.00133748 -0.00194538 -0.00140276 -0.00198716 -0.000911165 -0.00140276 -0.000895972 -0.00138619 -0.00140276 -0.00198716 -0.00138619 -0.00196882 -0.00194538 -0.00264222 -0.00198716 -0.00265724 -0.00264222 -0.00341862 -0.00265724 -0.00340443 -0.00198716 -0.00265724 -0.00196882 -0.0026372 -0.00265724 -0.00340443 -0.0026372 -0.00338325 -0.00348439 -0.0044933 -0.003001 -0.00379269 -0.0044933 -0.00556966 -0.00379269 -0.00463765 -0.003001 -0.00379269 -0.00341862 -0.00426413 -0.00379269 -0.00463765 -0.00426413 -0.00516705 -0.00556966 -0.00669838 -0.00463765 -0.00552385 -0.00669838 -0.00786301 -0.00552385 -0.00643815 -0.00463765 -0.00552385 -0.00516705 -0.00611448 -0.00552385 -0.00643815 -0.00611448 -0.00709228 -0.00341862 -0.00426413 -0.00340443 -0.00421896 -0.00426413 -0.00516705 -0.00421896 -0.00508974 -0.00340443 -0.00421896 -0.00338325 -0.00419753 -0.00421896 -0.00508974 -0.00419753 -0.00506922 -0.00516705 -0.00611448 -0.00508974 -0.0060044 -0.00611448 -0.00709228 -0.0060044 -0.00694932 -0.00508974 -0.0060044 -0.00506922 -0.00598612 -0.0060044 -0.00694932 -0.00598612 -0.00693466 -0.000895972 -0.00138619 -0.000765503 -0.00125868 -0.00138619 -0.00196882 -0.00125868 -0.00184516 -0.000765503 -0.00125868 -0.000518307 -0.0010213 -0.00125868 -0.00184516 -0.0010213 -0.00162018 -0.00196882 -0.0026372 -0.00184516 -0.00251862 -0.0026372 -0.00338325 -0.00251862 -0.00327132 -0.00184516 -0.00251862 -0.00162018 -0.00230878 -0.00251862 -0.00327132 -0.00230878 -0.0030796 -0.000518307 -0.0010213 -0.000148159 -0.000667648 -0.0010213 -0.00162018 -0.000667648 -0.00128714 -0.000148159 -0.000667648 0.0003525 -0.000190501 -0.000667648 -0.00128714 -0.000190501 -0.000839022 -0.00162018 -0.00230878 -0.00128714 -0.00200052 -0.00230878 -0.0030796 -0.00200052 -0.00280039 -0.00128714 -0.00200052 -0.000839022 -0.00158698 -0.00200052 -0.00280039 -0.00158698 -0.00242703 -0.00338325 -0.00419753 -0.00327132 -0.00409411 -0.00419753 -0.00506922 -0.00409411 -0.00497633 -0.00327132 -0.00409411 -0.0030796 -0.00392363 -0.00409411 -0.00497633 -0.00392363 -0.0048303 -0.00506922 -0.00598612 -0.00497633 -0.0059059 -0.00598612 -0.00693466 -0.0059059 -0.00686927 -0.00497633 -0.0059059 -0.0048303 -0.00578748 -0.0059059 -0.00686927 -0.00578748 -0.00678156 -0.0030796 -0.00392363 -0.00280039 -0.00367781 -0.00392363 -0.0048303 -0.00367781 -0.00462224 -0.00280039 -0.00367781 -0.00242703 -0.00335026 -0.00367781 -0.00462224 -0.00335026 -0.0043461 -0.0048303 -0.00578748 -0.00462224 -0.0056215 -0.00578748 -0.00678156 -0.0056215 -0.00666169 -0.00462224 -0.0056215 -0.0043461 -0.00540227 -0.0056215 -0.00666169 -0.00540227 -0.00650452 0.0003789 0.000739663 0.00106112 0.00132977 0.000739663 0.00113165 0.00132977 0.00180693 0.00106112 0.00132977 0.00192376 0.00207239 0.00132977 0.00180693 0.00207239 0.00265296 0.00113165 0.00131486 0.00180693 0.00199643 0.00131486 0.00137345 0.00199643 0.00206508 0.00180693 0.00199643 0.00265296 0.00284695 0.00199643 0.00206508 0.00284695 0.0029256 0.00192376 0.00207239 0.00297891 0.0029789 0.00207239 0.00265296 0.0029789 0.00368345 0.00297891 0.0029789 0.00424233 0.00406348 0.0029789 0.00368345 0.00406348 0.00491509 0.00265296 0.00284695 0.00368345 0.00388074 0.00284695 0.0029256 0.00388074 0.00396974 0.00368345 0.00388074 0.00491509 0.00511493 0.00388074 0.00396974 0.00511493 0.00521504 0.00137345 0.00129974 0.00206508 0.00199015 0.00129974 0.00110212 0.00199015 0.00178353 0.00206508 0.00199015 0.0029256 0.00284727 0.00199015 0.00178353 0.00284727 0.00262822 0.00110212 0.000784881 0.00178353 0.00144965 0.000784881 0.0003525 0.00144965 0.000993493 0.00178353 0.00144965 0.00262822 0.00227296 0.00144965 0.000993493 0.00227296 0.00178703 0.0029256 0.00284727 0.00396974 0.00388598 0.00284727 0.00262822 0.00388598 0.00365104 0.00396974 0.00388598 0.00521504 0.00512387 0.00388598 0.00365104 0.00512387 0.00486957 0.00262822 0.00227296 0.00365104 0.0032696 0.00227296 0.00178703 0.0032696 0.00274786 0.00365104 0.0032696 0.00486957 0.00445706 0.0032696 0.00274786 0.00445706 0.00389345 0.00424233 0.00406348 0.00573356 0.00534346 0.00406348 0.00491509 0.00534346 0.00636801 0.00573356 0.00534346 0.00747622 0.00683988 0.00534346 0.00636801 0.00683988 0.0080666 0.00491509 0.00511493 0.00636801 0.00657003 0.00511493 0.00521504 0.00657003 0.00668233 0.00636801 0.00657003 0.0080666 0.00827068 0.00657003 0.00668233 0.00827068 0.00839644 0.00747622 0.00683988 0.00949853 0.00857805 0.00683988 0.0080666 0.00857805 0.0100402 0.00949853 0.00857805 0.0118341 0.0105885 0.00857805 0.0100402 0.0105885 0.0123245 0.0080666 0.00827068 0.0100402 0.0102465 0.00827068 0.00839644 0.0102465 0.010387 0.0100402 0.0102465 0.0123245 0.0125331 0.0102465 0.010387 0.0125331 0.0126895 0.00521504 0.00512387 0.00668233 0.00658178 0.00512387 0.00486957 0.00658178 0.00630452 0.00668233 0.00658178 0.00839644 0.00828435 0.00658178 0.00630452 0.00828435 0.0079802 0.00486957 0.00445706 0.00630452 0.00585595 0.00445706 0.00389345 0.00585595 0.00524431 0.00630452 0.00585595 0.0079802 0.00749021 0.00585595 0.00524431 0.00749021 0.00682419 0.00839644 0.00828435 0.010387 0.0102607 0.00828435 0.0079802 0.0102607 0.00992506 0.010387 0.0102607 0.0126895 0.0125454 0.0102607 0.00992506 0.0125454 0.0121724 0.0079802 0.00749021 0.00992506 0.00938767 0.00749021 0.00682419 0.00938767 0.00866035 0.00992506 0.00938767 0.0121724 0.0115804 0.00938767 0.00866035 0.0115804 0.0107839 0.0003525 -0.000190501 0.000993493 0.000419812 -0.000190501 -0.000839022 0.000419812 -0.000266232 0.000993493 0.000419812 0.00178703 0.00117541 0.000419812 -0.000266232 0.00117541 0.00044333 -0.000839022 -0.00158698 -0.000266232 -0.00105858 -0.00158698 -0.00242703 -0.00105858 -0.00194993 -0.000266232 -0.00105858 0.00044333 -0.000403208 -0.00105858 -0.00194993 -0.000403208 -0.00135698 0.00178703 0.00117541 0.00274786 0.00209105 0.00117541 0.00044333 0.00209105 0.00130447 0.00274786 0.00209105 0.00389345 0.00318428 0.00209105 0.00130447 0.00318428 0.00233487 0.00044333 -0.000403208 0.00130447 0.000394058 -0.000403208 -0.00135698 0.000394058 -0.000633107 0.00130447 0.000394058 0.00233487 0.0013511 0.000394058 -0.000633107 0.0013511 0.0002398 -0.00242703 -0.00335026 -0.00194993 -0.00293146 -0.00335026 -0.0043461 -0.00293146 -0.00399254 -0.00194993 -0.00293146 -0.00135698 -0.00240925 -0.00293146 -0.00399254 -0.00240925 -0.00354946 -0.0043461 -0.00540227 -0.00399254 -0.00512073 -0.00540227 -0.00650452 -0.00512073 -0.00630143 -0.00399254 -0.00512073 -0.00354946 -0.00476503 -0.00512073 -0.00630143 -0.00476503 -0.00604104 -0.00135698 -0.00240925 -0.000633107 -0.00176848 -0.00240925 -0.00354946 -0.00176848 -0.00300167 -0.000633107 -0.00176848 0.0002398 -0.000990818 -0.00176848 -0.00300167 -0.000990818 -0.00233067 -0.00354946 -0.00476503 -0.00300167 -0.00432011 -0.00476503 -0.00604104 -0.00432011 -0.00570869 -0.00300167 -0.00432011 -0.00233067 -0.00376739 -0.00432011 -0.00570869 -0.00376739 -0.00528596 0.00389345 0.00318428 0.00524431 0.00447558 0.00318428 0.00233487 0.00447558 0.00355521 0.00524431 0.00447558 0.00682419 0.00598867 0.00447558 0.00355521 0.00598867 0.0049893 0.00233487 0.0013511 0.00355521 0.00248888 0.0013511 0.0002398 0.00248888 0.00128307 0.00355521 0.00248888 0.0049893 0.00383152 0.00248888 0.00128307 0.00383152 0.00252134 0.00682419 0.00598867 0.00866035 0.00775051 0.00598867 0.0049893 0.00775051 0.00666406 0.00866035 0.00775051 0.0107839 0.00979156 0.00775051 0.00666406 0.00979156 0.00860965 0.0049893 0.00383152 0.00666406 0.00540624 0.00383152 0.00252134 0.00540624 0.00398248 0.00666406 0.00540624 0.00860965 0.00724329 0.00540624 0.00398248 0.00724329 0.00569732 0.0002398 -0.000990818 0.00128307 -5.44686e-05 -0.000990818 -0.00233067 -5.44686e-05 -0.00151418 0.00128307 -5.44686e-05 0.00252134 0.00106589 -5.44686e-05 -0.00151418 0.00106589 -0.00052612 -0.00233067 -0.00376739 -0.00151418 -0.00308423 -0.00376739 -0.00528596 -0.00308423 -0.00475003 -0.00151418 -0.00308423 -0.00052612 -0.00224373 -0.00308423 -0.00475003 -0.00224373 -0.00407329 0.00252134 0.00106589 0.00398248 0.00239907 0.00106589 -0.00052612 0.00239907 0.000663591 0.00398248 0.00239907 0.00569732 0.003977 0.00239907 0.000663591 0.003977 0.00208851 -0.00052612 -0.00224373 0.000663591 -0.00121439 -0.00224373 -0.00407329 -0.00121439 -0.00322275 0.000663591 -0.00121439 0.00208851 3.95159e-05 -0.00121439 -0.00322275 3.95159e-05 -0.00216015 -0.00786301 -0.0090458 -0.00643815 -0.00736639 -0.0090458 -0.0102278 -0.00736639 -0.00829359 -0.00643815 -0.00736639 -0.00709228 -0.00808516 -0.00736639 -0.00829359 -0.00808516 -0.00907696 -0.0102278 -0.0113892 -0.00829359 -0.00920397 -0.0113892 -0.0125094 -0.00920397 -0.0100812 -0.00829359 -0.00920397 -0.00907696 -0.0100507 -0.00920397 -0.0100812 -0.0100507 -0.0109888 -0.00709228 -0.00808516 -0.00694932 -0.00790969 -0.00808516 -0.00907696 -0.00790969 -0.00886978 -0.00694932 -0.00790969 -0.00693466 -0.00790006 -0.00790969 -0.00886978 -0.00790006 -0.00886645 -0.00907696 -0.0100507 -0.00886978 -0.00981301 -0.0100507 -0.0109888 -0.00981301 -0.0107223 -0.00886978 -0.00981301 -0.00886645 -0.00981708 -0.00981301 -0.0107223 -0.00981708 -0.0107346 -0.0125094 -0.0135672 -0.0100812 -0.0109087 -0.0135672 -0.0145414 -0.0109087 -0.0116699 -0.0100812 -0.0109087 -0.0109888 -0.0118734 -0.0109087 -0.0116699 -0.0118734 -0.0126869 -0.0145414 -0.015411 -0.0116699 -0.0123486 -0.015411 -0.0161553 -0.0123486 -0.0129295 -0.0116699 -0.0123486 -0.0126869 -0.0134124 -0.0123486 -0.0129295 -0.0134124 -0.0140339 -0.0109888 -0.0118734 -0.0107223 -0.0115802 -0.0118734 -0.0126869 -0.0115802 -0.0123695 -0.0107223 -0.0115802 -0.0107346 -0.0116012 -0.0115802 -0.0123695 -0.0116012 -0.0123995 -0.0126869 -0.0134124 -0.0123695 -0.013074 -0.0134124 -0.0140339 -0.013074 -0.0136784 -0.0123695 -0.013074 -0.0123995 -0.0131128 -0.013074 -0.0136784 -0.0131128 -0.0137257 -0.00693466 -0.00790006 -0.00686927 -0.00785157 -0.00790006 -0.00886645 -0.00785157 -0.00883667 -0.00686927 -0.00785157 -0.00678156 -0.00779739 -0.00785157 -0.00883667 -0.00779739 -0.00881836 -0.00886645 -0.00981708 -0.00883667 -0.00980743 -0.00981708 -0.0107346 -0.00980743 -0.0107459 -0.00883667 -0.00980743 -0.00881836 -0.00982664 -0.00980743 -0.0107459 -0.00982664 -0.0108035 -0.00678156 -0.00779739 -0.00666169 -0.00772726 -0.00779739 -0.00881836 -0.00772726 -0.00880093 -0.00666169 -0.00772726 -0.00650452 -0.00763676 -0.00772726 -0.00880093 -0.00763676 -0.00878089 -0.00881836 -0.00982664 -0.00880093 -0.00986399 -0.00982664 -0.0108035 -0.00986399 -0.0108965 -0.00880093 -0.00986399 -0.00878089 -0.00991706 -0.00986399 -0.0108965 -0.00991706 -0.0110238 -0.0107346 -0.0116012 -0.0107459 -0.0116339 -0.0116012 -0.0123995 -0.0116339 -0.012453 -0.0107459 -0.0116339 -0.0108035 -0.0117296 -0.0116339 -0.012453 -0.0117296 -0.0125856 -0.0123995 -0.0131128 -0.012453 -0.0131859 -0.0131128 -0.0137257 -0.0131859 -0.0138164 -0.012453 -0.0131859 -0.0125856 -0.0133525 -0.0131859 -0.0138164 -0.0133525 -0.014013 -0.0108035 -0.0117296 -0.0108965 -0.0118777 -0.0117296 -0.0125856 -0.0118777 -0.0127866 -0.0108965 -0.0118777 -0.0110238 -0.0120786 -0.0118777 -0.0127866 -0.0120786 -0.0130582 -0.0125856 -0.0133525 -0.0127866 -0.0136025 -0.0133525 -0.014013 -0.0136025 -0.0143058 -0.0127866 -0.0136025 -0.0130582 -0.0139394 -0.0136025 -0.0143058 -0.0139394 -0.0147003 -0.0161553 -0.0167547 -0.0129295 -0.0133988 -0.0167547 -0.0171913 -0.0133988 -0.0137457 -0.0129295 -0.0133988 -0.0140339 -0.0145381 -0.0133988 -0.0137457 -0.0145381 -0.0149148 -0.0171913 -0.017453 -0.0137457 -0.013961 -0.017453 -0.0175261 -0.013961 -0.0140597 -0.0137457 -0.013961 -0.0149148 -0.0151569 -0.013961 -0.0140597 -0.0151569 -0.0152779 -0.0140339 -0.0145381 -0.0136784 -0.0141703 -0.0145381 -0.0149148 -0.0141703 -0.0145403 -0.0136784 -0.0141703 -0.0137257 -0.0142251 -0.0141703 -0.0145403 -0.0142251 -0.0146017 -0.0149148 -0.0151569 -0.0145403 -0.0147819 -0.0151569 -0.0152779 -0.0147819 -0.014908 -0.0145403 -0.0147819 -0.0146017 -0.0148479 -0.0147819 -0.014908 -0.0148479 -0.0149746 -0.0175261 -0.0174598 -0.0140597 -0.013979 -0.0174598 -0.0172346 -0.013979 -0.0141457 -0.0140597 -0.013979 -0.0152779 -0.015226 -0.013979 -0.0141457 -0.015226 -0.0153847 -0.0172346 -0.0161623 -0.0141457 -0.0126261 -0.0161623 -0.0176103 -0.0126261 -0.015954 -0.0141457 -0.0126261 -0.0153847 -0.0138784 -0.0126261 -0.015954 -0.0138784 -0.0165101 -0.0152779 -0.015226 -0.014908 -0.01486 -0.015226 -0.0153847 -0.01486 -0.0150249 -0.014908 -0.01486 -0.0149746 -0.0149209 -0.01486 -0.0150249 -0.0149209 -0.0150615 -0.0153847 -0.0138784 -0.0150249 -0.0134788 -0.0138784 -0.0165101 -0.0134788 -0.016272 -0.0150249 -0.0134788 -0.0150615 -0.0134847 -0.0134788 -0.016272 -0.0134847 -0.0161136 -0.0137257 -0.0142251 -0.0138164 -0.0143305 -0.0142251 -0.0146017 -0.0143305 -0.0147178 -0.0138164 -0.0143305 -0.014013 -0.0145515 -0.0143305 -0.0147178 -0.0145515 -0.0149563 -0.0146017 -0.0148479 -0.0147178 -0.0149694 -0.0148479 -0.0149746 -0.0149694 -0.0150947 -0.0147178 -0.0149694 -0.0149563 -0.0152171 -0.0149694 -0.0150947 -0.0152171 -0.0153419 -0.014013 -0.0145515 -0.0143058 -0.0148793 -0.0145515 -0.0149563 -0.0148793 -0.0153095 -0.0143058 -0.0148793 -0.0147003 -0.015321 -0.0148793 -0.0153095 -0.015321 -0.015786 -0.0149563 -0.0152171 -0.0153095 -0.0155844 -0.0152171 -0.0153419 -0.0155844 -0.0157115 -0.0153095 -0.0155844 -0.015786 -0.0160815 -0.0155844 -0.0157115 -0.0160815 -0.0162145 -0.0149746 -0.0149209 -0.0150947 -0.0150296 -0.0149209 -0.0150615 -0.0150296 -0.0151478 -0.0150947 -0.0150296 -0.0153419 -0.0152647 -0.0150296 -0.0151478 -0.0152647 -0.0153626 -0.0150615 -0.0134847 -0.0151478 -0.0135268 -0.0134847 -0.0161136 -0.0135268 -0.0161293 -0.0151478 -0.0135268 -0.0153626 -0.0136932 -0.0135268 -0.0161293 -0.0136932 -0.0162861 -0.0153419 -0.0152647 -0.0157115 -0.0156228 -0.0152647 -0.0153626 -0.0156228 -0.015704 -0.0157115 -0.0156228 -0.0162145 -0.0161154 -0.0156228 -0.015704 -0.0161154 -0.0161821 -0.0153626 -0.0136932 -0.015704 -0.0139755 -0.0136932 -0.0162861 -0.0139755 -0.0165923 -0.015704 -0.0139755 -0.0161821 -0.0143816 -0.0139755 -0.0165923 -0.0143816 -0.0170464 -0.00650452 -0.00763676 -0.00630143 -0.00751791 -0.00763676 -0.00878089 -0.00751791 -0.00875117 -0.00630143 -0.00751791 -0.00604104 -0.00736014 -0.00751791 -0.00875117 -0.00736014 -0.00870236 -0.00878089 -0.00991706 -0.00875117 -0.00998001 -0.00991706 -0.0110238 -0.00998001 -0.0111812 -0.00875117 -0.00998001 -0.00870236 -0.010045 -0.00998001 -0.0111812 -0.010045 -0.0113627 -0.00604104 -0.00736014 -0.00570869 -0.00714952 -0.00736014 -0.00870236 -0.00714952 -0.00862168 -0.00570869 -0.00714952 -0.00528596 -0.00686818 -0.00714952 -0.00862168 -0.00686818 -0.00849236 -0.00870236 -0.010045 -0.00862168 -0.0101009 -0.010045 -0.0113627 -0.0101009 -0.0115596 -0.00862168 -0.0101009 -0.00849236 -0.0101327 -0.0101009 -0.0115596 -0.0101327 -0.0117593 -0.0110238 -0.0120786 -0.0111812 -0.0123298 -0.0120786 -0.0130582 -0.0123298 -0.0133999 -0.0111812 -0.0123298 -0.0113627 -0.0126278 -0.0123298 -0.0133999 -0.0126278 -0.013811 -0.0130582 -0.0139394 -0.0133999 -0.0143652 -0.0139394 -0.0147003 -0.0143652 -0.0152005 -0.0133999 -0.0143652 -0.013811 -0.0148822 -0.0143652 -0.0152005 -0.0148822 -0.0158118 -0.0113627 -0.0126278 -0.0115596 -0.0129668 -0.0126278 -0.013811 -0.0129668 -0.0142892 -0.0115596 -0.0129668 -0.0117593 -0.0133376 -0.0129668 -0.0142892 -0.0133376 -0.0148295 -0.013811 -0.0148822 -0.0142892 -0.0154917 -0.0148822 -0.0158118 -0.0154917 -0.0165396 -0.0142892 -0.0154917 -0.0148295 -0.0161938 -0.0154917 -0.0165396 -0.0161938 -0.0173889 -0.00528596 -0.00686818 -0.00475003 -0.00649351 -0.00686818 -0.00849236 -0.00649351 -0.00829259 -0.00475003 -0.00649351 -0.00407329 -0.00599747 -0.00649351 -0.00829259 -0.00599747 -0.00799446 -0.00849236 -0.0101327 -0.00829259 -0.0101203 -0.0101327 -0.0117593 -0.0101203 -0.0119444 -0.00829259 -0.0101203 -0.00799446 -0.0100368 -0.0101203 -0.0119444 -0.0100368 -0.0120902 -0.00407329 -0.00599747 -0.00322275 -0.00534575 -0.00599747 -0.00799446 -0.00534575 -0.00756281 -0.00322275 -0.00534575 -0.00216015 -0.00449735 -0.00534575 -0.00756281 -0.00449735 -0.00695413 -0.00799446 -0.0100368 -0.00756281 -0.00984694 -0.0100368 -0.0120902 -0.00984694 -0.0121631 -0.00756281 -0.00984694 -0.00695413 -0.00950563 -0.00984694 -0.0121631 -0.00950563 -0.0121177 -0.0117593 -0.0133376 -0.0119444 -0.0137265 -0.0133376 -0.0148295 -0.0137265 -0.015423 -0.0119444 -0.0137265 -0.0120902 -0.0141128 -0.0137265 -0