# vtk DataFile Version 3.0
#This file was generated by the deal.II library on 2026/1/5 at 14:19:36
ASCII
DATASET UNSTRUCTURED_GRID

POINTS 4096 double
0 0 0
0.03125 0 0
0 0.03125 0
0.03125 0.03125 0
0.03125 0 0
0.0625 0 0
0.03125 0.03125 0
0.0625 0.03125 0
0 0.03125 0
0.03125 0.03125 0
0 0.0625 0
0.03125 0.0625 0
0.03125 0.03125 0
0.0625 0.03125 0
0.03125 0.0625 0
0.0625 0.0625 0
0.0625 0 0
0.09375 0 0
0.0625 0.03125 0
0.09375 0.03125 0
0.09375 0 0
0.125 0 0
0.09375 0.03125 0
0.125 0.03125 0
0.0625 0.03125 0
0.09375 0.03125 0
0.0625 0.0625 0
0.09375 0.0625 0
0.09375 0.03125 0
0.125 0.03125 0
0.09375 0.0625 0
0.125 0.0625 0
0 0.0625 0
0.03125 0.0625 0
0 0.09375 0
0.03125 0.09375 0
0.03125 0.0625 0
0.0625 0.0625 0
0.03125 0.09375 0
0.0625 0.09375 0
0 0.09375 0
0.03125 0.09375 0
0 0.125 0
0.03125 0.125 0
0.03125 0.09375 0
0.0625 0.09375 0
0.03125 0.125 0
0.0625 0.125 0
0.0625 0.0625 0
0.09375 0.0625 0
0.0625 0.09375 0
0.09375 0.09375 0
0.09375 0.0625 0
0.125 0.0625 0
0.09375 0.09375 0
0.125 0.09375 0
0.0625 0.09375 0
0.09375 0.09375 0
0.0625 0.125 0
0.09375 0.125 0
0.09375 0.09375 0
0.125 0.09375 0
0.09375 0.125 0
0.125 0.125 0
0.125 0 0
0.15625 0 0
0.125 0.03125 0
0.15625 0.03125 0
0.15625 0 0
0.1875 0 0
0.15625 0.03125 0
0.1875 0.03125 0
0.125 0.03125 0
0.15625 0.03125 0
0.125 0.0625 0
0.15625 0.0625 0
0.15625 0.03125 0
0.1875 0.03125 0
0.15625 0.0625 0
0.1875 0.0625 0
0.1875 0 0
0.21875 0 0
0.1875 0.03125 0
0.21875 0.03125 0
0.21875 0 0
0.25 0 0
0.21875 0.03125 0
0.25 0.03125 0
0.1875 0.03125 0
0.21875 0.03125 0
0.1875 0.0625 0
0.21875 0.0625 0
0.21875 0.03125 0
0.25 0.03125 0
0.21875 0.0625 0
0.25 0.0625 0
0.125 0.0625 0
0.15625 0.0625 0
0.125 0.09375 0
0.15625 0.09375 0
0.15625 0.0625 0
0.1875 0.0625 0
0.15625 0.09375 0
0.1875 0.09375 0
0.125 0.09375 0
0.15625 0.09375 0
0.125 0.125 0
0.15625 0.125 0
0.15625 0.09375 0
0.1875 0.09375 0
0.15625 0.125 0
0.1875 0.125 0
0.1875 0.0625 0
0.21875 0.0625 0
0.1875 0.09375 0
0.21875 0.09375 0
0.21875 0.0625 0
0.25 0.0625 0
0.21875 0.09375 0
0.25 0.09375 0
0.1875 0.09375 0
0.21875 0.09375 0
0.1875 0.125 0
0.21875 0.125 0
0.21875 0.09375 0
0.25 0.09375 0
0.21875 0.125 0
0.25 0.125 0
0 0.125 0
0.03125 0.125 0
0 0.15625 0
0.03125 0.15625 0
0.03125 0.125 0
0.0625 0.125 0
0.03125 0.15625 0
0.0625 0.15625 0
0 0.15625 0
0.03125 0.15625 0
0 0.1875 0
0.03125 0.1875 0
0.03125 0.15625 0
0.0625 0.15625 0
0.03125 0.1875 0
0.0625 0.1875 0
0.0625 0.125 0
0.09375 0.125 0
0.0625 0.15625 0
0.09375 0.15625 0
0.09375 0.125 0
0.125 0.125 0
0.09375 0.15625 0
0.125 0.15625 0
0.0625 0.15625 0
0.09375 0.15625 0
0.0625 0.1875 0
0.09375 0.1875 0
0.09375 0.15625 0
0.125 0.15625 0
0.09375 0.1875 0
0.125 0.1875 0
0 0.1875 0
0.03125 0.1875 0
0 0.21875 0
0.03125 0.21875 0
0.03125 0.1875 0
0.0625 0.1875 0
0.03125 0.21875 0
0.0625 0.21875 0
0 0.21875 0
0.03125 0.21875 0
0 0.25 0
0.03125 0.25 0
0.03125 0.21875 0
0.0625 0.21875 0
0.03125 0.25 0
0.0625 0.25 0
0.0625 0.1875 0
0.09375 0.1875 0
0.0625 0.21875 0
0.09375 0.21875 0
0.09375 0.1875 0
0.125 0.1875 0
0.09375 0.21875 0
0.125 0.21875 0
0.0625 0.21875 0
0.09375 0.21875 0
0.0625 0.25 0
0.09375 0.25 0
0.09375 0.21875 0
0.125 0.21875 0
0.09375 0.25 0
0.125 0.25 0
0.125 0.125 0
0.15625 0.125 0
0.125 0.15625 0
0.15625 0.15625 0
0.15625 0.125 0
0.1875 0.125 0
0.15625 0.15625 0
0.1875 0.15625 0
0.125 0.15625 0
0.15625 0.15625 0
0.125 0.1875 0
0.15625 0.1875 0
0.15625 0.15625 0
0.1875 0.15625 0
0.15625 0.1875 0
0.1875 0.1875 0
0.1875 0.125 0
0.21875 0.125 0
0.1875 0.15625 0
0.21875 0.15625 0
0.21875 0.125 0
0.25 0.125 0
0.21875 0.15625 0
0.25 0.15625 0
0.1875 0.15625 0
0.21875 0.15625 0
0.1875 0.1875 0
0.21875 0.1875 0
0.21875 0.15625 0
0.25 0.15625 0
0.21875 0.1875 0
0.25 0.1875 0
0.125 0.1875 0
0.15625 0.1875 0
0.125 0.21875 0
0.15625 0.21875 0
0.15625 0.1875 0
0.1875 0.1875 0
0.15625 0.21875 0
0.1875 0.21875 0
0.125 0.21875 0
0.15625 0.21875 0
0.125 0.25 0
0.15625 0.25 0
0.15625 0.21875 0
0.1875 0.21875 0
0.15625 0.25 0
0.1875 0.25 0
0.1875 0.1875 0
0.21875 0.1875 0
0.1875 0.21875 0
0.21875 0.21875 0
0.21875 0.1875 0
0.25 0.1875 0
0.21875 0.21875 0
0.25 0.21875 0
0.1875 0.21875 0
0.21875 0.21875 0
0.1875 0.25 0
0.21875 0.25 0
0.21875 0.21875 0
0.25 0.21875 0
0.21875 0.25 0
0.25 0.25 0
0.25 0 0
0.28125 0 0
0.25 0.03125 0
0.28125 0.03125 0
0.28125 0 0
0.3125 0 0
0.28125 0.03125 0
0.3125 0.03125 0
0.25 0.03125 0
0.28125 0.03125 0
0.25 0.0625 0
0.28125 0.0625 0
0.28125 0.03125 0
0.3125 0.03125 0
0.28125 0.0625 0
0.3125 0.0625 0
0.3125 0 0
0.34375 0 0
0.3125 0.03125 0
0.34375 0.03125 0
0.34375 0 0
0.375 0 0
0.34375 0.03125 0
0.375 0.03125 0
0.3125 0.03125 0
0.34375 0.03125 0
0.3125 0.0625 0
0.34375 0.0625 0
0.34375 0.03125 0
0.375 0.03125 0
0.34375 0.0625 0
0.375 0.0625 0
0.25 0.0625 0
0.28125 0.0625 0
0.25 0.09375 0
0.28125 0.09375 0
0.28125 0.0625 0
0.3125 0.0625 0
0.28125 0.09375 0
0.3125 0.09375 0
0.25 0.09375 0
0.28125 0.09375 0
0.25 0.125 0
0.28125 0.125 0
0.28125 0.09375 0
0.3125 0.09375 0
0.28125 0.125 0
0.3125 0.125 0
0.3125 0.0625 0
0.34375 0.0625 0
0.3125 0.09375 0
0.34375 0.09375 0
0.34375 0.0625 0
0.375 0.0625 0
0.34375 0.09375 0
0.375 0.09375 0
0.3125 0.09375 0
0.34375 0.09375 0
0.3125 0.125 0
0.34375 0.125 0
0.34375 0.09375 0
0.375 0.09375 0
0.34375 0.125 0
0.375 0.125 0
0.375 0 0
0.40625 0 0
0.375 0.03125 0
0.40625 0.03125 0
0.40625 0 0
0.4375 0 0
0.40625 0.03125 0
0.4375 0.03125 0
0.375 0.03125 0
0.40625 0.03125 0
0.375 0.0625 0
0.40625 0.0625 0
0.40625 0.03125 0
0.4375 0.03125 0
0.40625 0.0625 0
0.4375 0.0625 0
0.4375 0 0
0.46875 0 0
0.4375 0.03125 0
0.46875 0.03125 0
0.46875 0 0
0.5 0 0
0.46875 0.03125 0
0.5 0.03125 0
0.4375 0.03125 0
0.46875 0.03125 0
0.4375 0.0625 0
0.46875 0.0625 0
0.46875 0.03125 0
0.5 0.03125 0
0.46875 0.0625 0
0.5 0.0625 0
0.375 0.0625 0
0.40625 0.0625 0
0.375 0.09375 0
0.40625 0.09375 0
0.40625 0.0625 0
0.4375 0.0625 0
0.40625 0.09375 0
0.4375 0.09375 0
0.375 0.09375 0
0.40625 0.09375 0
0.375 0.125 0
0.40625 0.125 0
0.40625 0.09375 0
0.4375 0.09375 0
0.40625 0.125 0
0.4375 0.125 0
0.4375 0.0625 0
0.46875 0.0625 0
0.4375 0.09375 0
0.46875 0.09375 0
0.46875 0.0625 0
0.5 0.0625 0
0.46875 0.09375 0
0.5 0.09375 0
0.4375 0.09375 0
0.46875 0.09375 0
0.4375 0.125 0
0.46875 0.125 0
0.46875 0.09375 0
0.5 0.09375 0
0.46875 0.125 0
0.5 0.125 0
0.25 0.125 0
0.28125 0.125 0
0.25 0.15625 0
0.28125 0.15625 0
0.28125 0.125 0
0.3125 0.125 0
0.28125 0.15625 0
0.3125 0.15625 0
0.25 0.15625 0
0.28125 0.15625 0
0.25 0.1875 0
0.28125 0.1875 0
0.28125 0.15625 0
0.3125 0.15625 0
0.28125 0.1875 0
0.3125 0.1875 0
0.3125 0.125 0
0.34375 0.125 0
0.3125 0.15625 0
0.34375 0.15625 0
0.34375 0.125 0
0.375 0.125 0
0.34375 0.15625 0
0.375 0.15625 0
0.3125 0.15625 0
0.34375 0.15625 0
0.3125 0.1875 0
0.34375 0.1875 0
0.34375 0.15625 0
0.375 0.15625 0
0.34375 0.1875 0
0.375 0.1875 0
0.25 0.1875 0
0.28125 0.1875 0
0.25 0.21875 0
0.28125 0.21875 0
0.28125 0.1875 0
0.3125 0.1875 0
0.28125 0.21875 0
0.3125 0.21875 0
0.25 0.21875 0
0.28125 0.21875 0
0.25 0.25 0
0.28125 0.25 0
0.28125 0.21875 0
0.3125 0.21875 0
0.28125 0.25 0
0.3125 0.25 0
0.3125 0.1875 0
0.34375 0.1875 0
0.3125 0.21875 0
0.34375 0.21875 0
0.34375 0.1875 0
0.375 0.1875 0
0.34375 0.21875 0
0.375 0.21875 0
0.3125 0.21875 0
0.34375 0.21875 0
0.3125 0.25 0
0.34375 0.25 0
0.34375 0.21875 0
0.375 0.21875 0
0.34375 0.25 0
0.375 0.25 0
0.375 0.125 0
0.40625 0.125 0
0.375 0.15625 0
0.40625 0.15625 0
0.40625 0.125 0
0.4375 0.125 0
0.40625 0.15625 0
0.4375 0.15625 0
0.375 0.15625 0
0.40625 0.15625 0
0.375 0.1875 0
0.40625 0.1875 0
0.40625 0.15625 0
0.4375 0.15625 0
0.40625 0.1875 0
0.4375 0.1875 0
0.4375 0.125 0
0.46875 0.125 0
0.4375 0.15625 0
0.46875 0.15625 0
0.46875 0.125 0
0.5 0.125 0
0.46875 0.15625 0
0.5 0.15625 0
0.4375 0.15625 0
0.46875 0.15625 0
0.4375 0.1875 0
0.46875 0.1875 0
0.46875 0.15625 0
0.5 0.15625 0
0.46875 0.1875 0
0.5 0.1875 0
0.375 0.1875 0
0.40625 0.1875 0
0.375 0.21875 0
0.40625 0.21875 0
0.40625 0.1875 0
0.4375 0.1875 0
0.40625 0.21875 0
0.4375 0.21875 0
0.375 0.21875 0
0.40625 0.21875 0
0.375 0.25 0
0.40625 0.25 0
0.40625 0.21875 0
0.4375 0.21875 0
0.40625 0.25 0
0.4375 0.25 0
0.4375 0.1875 0
0.46875 0.1875 0
0.4375 0.21875 0
0.46875 0.21875 0
0.46875 0.1875 0
0.5 0.1875 0
0.46875 0.21875 0
0.5 0.21875 0
0.4375 0.21875 0
0.46875 0.21875 0
0.4375 0.25 0
0.46875 0.25 0
0.46875 0.21875 0
0.5 0.21875 0
0.46875 0.25 0
0.5 0.25 0
0 0.25 0
0.03125 0.25 0
0 0.28125 0
0.03125 0.28125 0
0.03125 0.25 0
0.0625 0.25 0
0.03125 0.28125 0
0.0625 0.28125 0
0 0.28125 0
0.03125 0.28125 0
0 0.3125 0
0.03125 0.3125 0
0.03125 0.28125 0
0.0625 0.28125 0
0.03125 0.3125 0
0.0625 0.3125 0
0.0625 0.25 0
0.09375 0.25 0
0.0625 0.28125 0
0.09375 0.28125 0
0.09375 0.25 0
0.125 0.25 0
0.09375 0.28125 0
0.125 0.28125 0
0.0625 0.28125 0
0.09375 0.28125 0
0.0625 0.3125 0
0.09375 0.3125 0
0.09375 0.28125 0
0.125 0.28125 0
0.09375 0.3125 0
0.125 0.3125 0
0 0.3125 0
0.03125 0.3125 0
0 0.34375 0
0.03125 0.34375 0
0.03125 0.3125 0
0.0625 0.3125 0
0.03125 0.34375 0
0.0625 0.34375 0
0 0.34375 0
0.03125 0.34375 0
0 0.375 0
0.03125 0.375 0
0.03125 0.34375 0
0.0625 0.34375 0
0.03125 0.375 0
0.0625 0.375 0
0.0625 0.3125 0
0.09375 0.3125 0
0.0625 0.34375 0
0.09375 0.34375 0
0.09375 0.3125 0
0.125 0.3125 0
0.09375 0.34375 0
0.125 0.34375 0
0.0625 0.34375 0
0.09375 0.34375 0
0.0625 0.375 0
0.09375 0.375 0
0.09375 0.34375 0
0.125 0.34375 0
0.09375 0.375 0
0.125 0.375 0
0.125 0.25 0
0.15625 0.25 0
0.125 0.28125 0
0.15625 0.28125 0
0.15625 0.25 0
0.1875 0.25 0
0.15625 0.28125 0
0.1875 0.28125 0
0.125 0.28125 0
0.15625 0.28125 0
0.125 0.3125 0
0.15625 0.3125 0
0.15625 0.28125 0
0.1875 0.28125 0
0.15625 0.3125 0
0.1875 0.3125 0
0.1875 0.25 0
0.21875 0.25 0
0.1875 0.28125 0
0.21875 0.28125 0
0.21875 0.25 0
0.25 0.25 0
0.21875 0.28125 0
0.25 0.28125 0
0.1875 0.28125 0
0.21875 0.28125 0
0.1875 0.3125 0
0.21875 0.3125 0
0.21875 0.28125 0
0.25 0.28125 0
0.21875 0.3125 0
0.25 0.3125 0
0.125 0.3125 0
0.15625 0.3125 0
0.125 0.34375 0
0.15625 0.34375 0
0.15625 0.3125 0
0.1875 0.3125 0
0.15625 0.34375 0
0.1875 0.34375 0
0.125 0.34375 0
[...]
POINT_DATA 4096
SCALARS u_x double 1
LOOKUP_TABLE default
2.22618e-05 1.51054e-05 -1.94238e-05 -5.23235e-05 1.51054e-05 2.25834e-05 -5.23235e-05 -0.000384373 -1.94238e-05 -5.23235e-05 -0.000142137 -0.000218852 -5.23235e-05 -0.000384373 -0.000218852 -0.000970097 2.25834e-05 1.95966e-05 -0.000384373 -0.00100166 1.95966e-05 1.03596e-05 -0.00100166 -0.00186024 -0.000384373 -0.00100166 -0.000970097 -0.00215252 -0.00100166 -0.00186024 -0.00215252 -0.00370733 -0.000142137 -0.000218852 -0.000274863 -0.000375803 -0.000218852 -0.000970097 -0.000375803 -0.00152915 -0.000274863 -0.000375803 -0.000370353 -0.00050277 -0.000375803 -0.00152915 -0.00050277 -0.00199469 -0.000970097 -0.00215252 -0.00152915 -0.00321659 -0.00215252 -0.00370733 -0.00321659 -0.00535533 -0.00152915 -0.00321659 -0.00199469 -0.00411494 -0.00321659 -0.00535533 -0.00411494 -0.00674547 1.03596e-05 -1.52774e-06 -0.00186024 -0.00287754 -1.52774e-06 -1.41213e-05 -0.00287754 -0.00397898 -0.00186024 -0.00287754 -0.00370733 -0.00551097 -0.00287754 -0.00397898 -0.00551097 -0.00745051 -1.41213e-05 -2.64937e-05 -0.00397898 -0.00510399 -2.64937e-05 -3.82131e-05 -0.00510399 -0.00620679 -0.00397898 -0.00510399 -0.00745051 -0.00942842 -0.00510399 -0.00620679 -0.00942842 -0.0113675 -0.00370733 -0.00551097 -0.00535533 -0.00778878 -0.00551097 -0.00745051 -0.00778878 -0.0103816 -0.00535533 -0.00778878 -0.00674547 -0.0096965 -0.00778878 -0.0103816 -0.0096965 -0.0128142 -0.00745051 -0.00942842 -0.0103816 -0.0130145 -0.00942842 -0.0113675 -0.0130145 -0.0155908 -0.0103816 -0.0130145 -0.0128142 -0.0159645 -0.0130145 -0.0155908 -0.0159645 -0.0190383 -0.000370353 -0.00050277 -0.00040492 -0.000605954 -0.00050277 -0.00199469 -0.000605954 -0.00236703 -0.00040492 -0.000605954 -0.000366781 -0.000696607 -0.000605954 -0.00236703 -0.000696607 -0.00266973 -0.00199469 -0.00411494 -0.00236703 -0.00485192 -0.00411494 -0.00674547 -0.00485192 -0.00789877 -0.00236703 -0.00485192 -0.00266973 -0.00546756 -0.00485192 -0.00789877 -0.00546756 -0.00887547 -0.000366781 -0.000696607 -0.000249524 -0.000785226 -0.000696607 -0.00266973 -0.000785226 -0.0029306 -0.000249524 -0.000785226 -4.88889e-05 -0.000880548 -0.000785226 -0.0029306 -0.000880548 -0.00317513 -0.00266973 -0.00546756 -0.0029306 -0.00601137 -0.00546756 -0.00887547 -0.00601137 -0.00974784 -0.0029306 -0.00601137 -0.00317513 -0.00653048 -0.00601137 -0.00974784 -0.00653048 -0.0105855 -0.00674547 -0.0096965 -0.00789877 -0.0112863 -0.0096965 -0.0128142 -0.0112863 -0.0148418 -0.00789877 -0.0112863 -0.00887547 -0.012645 -0.0112863 -0.0148418 -0.012645 -0.0165834 -0.0128142 -0.0159645 -0.0148418 -0.0184187 -0.0159645 -0.0190383 -0.0184187 -0.0218987 -0.0148418 -0.0184187 -0.0165834 -0.0205321 -0.0184187 -0.0218987 -0.0205321 -0.0243648 -0.00887547 -0.012645 -0.00974784 -0.0138696 -0.012645 -0.0165834 -0.0138696 -0.0181635 -0.00974784 -0.0138696 -0.0105855 -0.0150528 -0.0138696 -0.0181635 -0.0150528 -0.0196976 -0.0165834 -0.0205321 -0.0181635 -0.0224582 -0.0205321 -0.0243648 -0.0224582 -0.0266197 -0.0181635 -0.0224582 -0.0196976 -0.0243358 -0.0224582 -0.0266197 -0.0243358 -0.0288254 -3.82131e-05 -4.91014e-05 -0.00620679 -0.00725361 -4.91014e-05 -5.90875e-05 -0.00725361 -0.0082195 -0.00620679 -0.00725361 -0.0113675 -0.0132086 -0.00725361 -0.0082195 -0.0132086 -0.0149069 -5.90875e-05 -6.81223e-05 -0.0082195 -0.00908541 -6.81223e-05 -7.6143e-05 -0.00908541 -0.009836 -0.0082195 -0.00908541 -0.0149069 -0.0164275 -0.00908541 -0.009836 -0.0164275 -0.0177424 -0.0113675 -0.0132086 -0.0155908 -0.0180343 -0.0132086 -0.0149069 -0.0180343 -0.0202861 -0.0155908 -0.0180343 -0.0190383 -0.0219488 -0.0180343 -0.0202861 -0.0219488 -0.0246277 -0.0149069 -0.0164275 -0.0202861 -0.0222997 -0.0164275 -0.0177424 -0.0222997 -0.0240378 -0.0202861 -0.0222997 -0.0246277 -0.0270207 -0.0222997 -0.0240378 -0.0270207 -0.029084 -7.6143e-05 -8.30618e-05 -0.009836 -0.0104582 -8.30618e-05 -8.87591e-05 -0.0104582 -0.0109406 -0.009836 -0.0104582 -0.0177424 -0.0188284 -0.0104582 -0.0109406 -0.0188284 -0.0196653 -8.87591e-05 -9.30881e-05 -0.0109406 -0.0112727 -9.30881e-05 -9.58903e-05 -0.0112727 -0.0114457 -0.0109406 -0.0112727 -0.0196653 -0.0202353 -0.0112727 -0.0114457 -0.0202353 -0.0205235 -0.0177424 -0.0188284 -0.0240378 -0.0254693 -0.0188284 -0.0196653 -0.0254693 -0.0265676 -0.0240378 -0.0254693 -0.029084 -0.0307809 -0.0254693 -0.0265676 -0.0307809 -0.0320803 -0.0196653 -0.0202353 -0.0265676 -0.0273099 -0.0202353 -0.0205235 -0.0273099 -0.0276773 -0.0265676 -0.0273099 -0.0320803 -0.0329555 -0.0273099 -0.0276773 -0.0329555 -0.0333846 -0.0190383 -0.0219488 -0.0218987 -0.025188 -0.0219488 -0.0246277 -0.025188 -0.0282124 -0.0218987 -0.025188 -0.0243648 -0.0279823 -0.025188 -0.0282124 -0.0279823 -0.0313065 -0.0246277 -0.0270207 -0.0282124 -0.0309126 -0.0270207 -0.029084 -0.0309126 -0.0332403 -0.0282124 -0.0309126 -0.0313065 -0.0342748 -0.0309126 -0.0332403 -0.0342748 -0.0368363 -0.0243648 -0.0279823 -0.0266197 -0.0305442 -0.0279823 -0.0313065 -0.0305442 -0.0341505 -0.0266197 -0.0305442 -0.0288254 -0.0330579 -0.0305442 -0.0341505 -0.0330579 -0.0369498 -0.0313065 -0.0342748 -0.0341505 -0.0373741 -0.0342748 -0.0368363 -0.0373741 -0.0401618 -0.0341505 -0.0373741 -0.0369498 -0.0404351 -0.0373741 -0.0401618 -0.0404351 -0.0434595 -0.029084 -0.0307809 -0.0332403 -0.0351552 -0.0307809 -0.0320803 -0.0351552 -0.0366225 -0.0332403 -0.0351552 -0.0368363 -0.0389476 -0.0351552 -0.0366225 -0.0389476 -0.0405716 -0.0320803 -0.0329555 -0.0366225 -0.0376128 -0.0329555 -0.0333846 -0.0376128 -0.038101 -0.0366225 -0.0376128 -0.0405716 -0.0416759 -0.0376128 -0.038101 -0.0416759 -0.0422326 -0.0368363 -0.0389476 -0.0401618 -0.0424688 -0.0389476 -0.0405716 -0.0424688 -0.0442553 -0.0401618 -0.0424688 -0.0434595 -0.0459765 -0.0424688 -0.0442553 -0.0459765 -0.0479443 -0.0405716 -0.0416759 -0.0442553 -0.045486 -0.0416759 -0.0422326 -0.045486 -0.0461298 -0.0442553 -0.045486 -0.0479443 -0.0493247 -0.045486 -0.0461298 -0.0493247 -0.0500821 -4.88889e-05 -0.000880548 0.000239029 -0.000989528 -0.000880548 -0.00317513 -0.000989528 -0.0034244 0.000239029 -0.000989528 0.000618806 -0.00111771 -0.000989528 -0.0034244 -0.00111771 -0.00369506 -0.00317513 -0.00653048 -0.0034244 -0.00706511 -0.00653048 -0.0105855 -0.00706511 -0.0114487 -0.0034244 -0.00706511 -0.00369506 -0.00764786 -0.00706511 -0.0114487 -0.00764786 -0.012387 0.000618806 -0.00111771 0.00109626 -0.00126971 -0.00111771 -0.00369506 -0.00126971 -0.00400031 0.00109626 -0.00126971 0.00167884 -0.00144971 -0.00126971 -0.00400031 -0.00144971 -0.00435122 -0.00369506 -0.00764786 -0.00400031 -0.00830502 -0.00764786 -0.012387 -0.00830502 -0.0134404 -0.00400031 -0.00830502 -0.00435122 -0.00905889 -0.00830502 -0.0134404 -0.00905889 -0.0146429 -0.0105855 -0.0150528 -0.0114487 -0.0162746 -0.0150528 -0.0196976 -0.0162746 -0.021285 -0.0114487 -0.0162746 -0.012387 -0.0176009 -0.0162746 -0.021285 -0.0176009 -0.0230069 -0.0196976 -0.0243358 -0.021285 -0.0262826 -0.0243358 -0.0288254 -0.0262826 -0.0311168 -0.021285 -0.0262826 -0.0230069 -0.0283936 -0.0262826 -0.0311168 -0.0283936 -0.0336016 -0.012387 -0.0176009 -0.0134404 -0.0190852 -0.0176009 -0.0230069 -0.0190852 -0.0249287 -0.0134404 -0.0190852 -0.0146429 -0.0207721 -0.0190852 -0.0249287 -0.0207721 -0.0271039 -0.0230069 -0.0283936 -0.0249287 -0.0307443 -0.0283936 -0.0336016 -0.0307443 -0.0363637 -0.0249287 -0.0307443 -0.0271039 -0.0333954 -0.0307443 -0.0363637 -0.0333954 -0.0394688 0.00167884 -0.00144971 0.00237582 -0.00166202 -0.00144971 -0.00435122 -0.00166202 -0.00475825 0.00237582 -0.00166202 0.00319853 -0.00191152 -0.00166202 -0.00475825 -0.00191152 -0.00523279 -0.00435122 -0.00905889 -0.00475825 -0.00993043 -0.00905889 -0.0146429 -0.00993043 -0.0160258 -0.00475825 -0.00993043 -0.00523279 -0.0109421 -0.00993043 -0.0160258 -0.0109421 -0.0176218 0.00319853 -0.00191152 0.00416058 -0.00220434 -0.00191152 -0.00523279 -0.00220434 -0.00578882 0.00416058 -0.00220434 0.00527846 -0.00254839 -0.00220434 -0.00578882 -0.00254839 -0.00644465 -0.00523279 -0.0109421 -0.00578882 -0.0121207 -0.0109421 -0.0176218 -0.0121207 -0.0194688 -0.00578882 -0.0121207 -0.00644465 -0.0135003 -0.0121207 -0.0194688 -0.0135003 -0.0216138 -0.0146429 -0.0207721 -0.0160258 -0.022702 -0.0207721 -0.0271039 -0.022702 -0.0295799 -0.0160258 -0.022702 -0.0176218 -0.024916 -0.022702 -0.0295799 -0.024916 -0.0324026 -0.0271039 -0.0333954 -0.0295799 -0.0363983 -0.0333954 -0.0394688 -0.0363983 -0.0429703 -0.0295799 -0.0363983 -0.0324026 -0.0398009 -0.0363983 -0.0429703 -0.0398009 -0.0469149 -0.0176218 -0.024916 -0.0194688 -0.0274597 -0.024916 -0.0324026 -0.0274597 -0.0356213 -0.0194688 -0.0274597 -0.0216138 -0.0303876 -0.0274597 -0.0356213 -0.0303876 -0.0392922 -0.0324026 -0.0398009 -0.0356213 -0.0436517 -0.0398009 -0.0469149 -0.0436517 -0.0513467 -0.0356213 -0.0436517 -0.0392922 -0.0480025 -0.0436517 -0.0513467 -0.0480025 -0.0563081 -0.0288254 -0.0330579 -0.0311168 -0.0356748 -0.0330579 -0.0369498 -0.0356748 -0.0398709 -0.0311168 -0.0356748 -0.0336016 -0.0385137 -0.0356748 -0.0398709 -0.0385137 -0.0430428 -0.0369498 -0.0404351 -0.0398709 -0.0436383 -0.0404351 -0.0434595 -0.0436383 -0.0469222 -0.0398709 -0.0436383 -0.0430428 -0.0471219 -0.0436383 -0.0469222 -0.0471219 -0.0506964 -0.0336016 -0.0385137 -0.0363637 -0.0416657 -0.0385137 -0.0430428 -0.0416657 -0.0465625 -0.0363637 -0.0416657 -0.0394688 -0.0451998 -0.0416657 -0.0465625 -0.0451998 -0.0505013 -0.0430428 -0.0471219 -0.0465625 -0.0509881 -0.0471219 -0.0506964 -0.0509881 -0.0548893 -0.0465625 -0.0509881 -0.0505013 -0.0553097 -0.0509881 -0.0548893 -0.0553097 -0.0595753 -0.0434595 -0.0459765 -0.0469222 -0.0496749 -0.0459765 -0.0479443 -0.0496749 -0.0518529 -0.0469222 -0.0496749 -0.0506964 -0.0537185 -0.0496749 -0.0518529 -0.0537185 -0.056143 -0.0479443 -0.0493247 -0.0518529 -0.0534146 -0.0493247 -0.0500821 -0.0534146 -0.0543197 -0.0518529 -0.0534146 -0.056143 -0.0579252 -0.0534146 -0.0543197 -0.0579252 -0.0590195 -0.0506964 -0.0537185 -0.0548893 -0.0582191 -0.0537185 -0.056143 -0.0582191 -0.060932 -0.0548893 -0.0582191 -0.0595753 -0.0632537 -0.0582191 -0.060932 -0.0632537 -0.0663005 -0.056143 -0.0579252 -0.060932 -0.0629804 -0.0579252 -0.0590195 -0.0629804 -0.0643133 -0.060932 -0.0629804 -0.0663005 -0.0686667 -0.0629804 -0.0643133 -0.0686667 -0.0702961 -0.0394688 -0.0451998 -0.0429703 -0.0491695 -0.0451998 -0.0505013 -0.0491695 -0.0549113 -0.0429703 -0.0491695 -0.0469149 -0.0536182 -0.0491695 -0.0549113 -0.0536182 -0.059831 -0.0505013 -0.0553097 -0.0549113 -0.0601373 -0.0553097 -0.0595753 -0.0601373 -0.0648033 -0.0549113 -0.0601373 -0.059831 -0.0655033 -0.0601373 -0.0648033 -0.0655033 -0.0706004 -0.0469149 -0.0536182 -0.0513467 -0.0585821 -0.0536182 -0.059831 -0.0585821 -0.0652871 -0.0513467 -0.0585821 -0.0563081 -0.0640908 -0.0585821 -0.0652871 -0.0640908 -0.0712933 -0.059831 -0.0655033 -0.0652871 -0.071424 -0.0655033 -0.0706004 -0.071424 -0.076972 -0.0652871 -0.071424 -0.0712933 -0.0778956 -0.071424 -0.076972 -0.0778956 -0.0838962 -0.0595753 -0.0632537 -0.0648033 -0.0688706 -0.0632537 -0.0663005 -0.0688706 -0.0722983 -0.0648033 -0.0688706 -0.0706004 -0.0750925 -0.0688706 -0.0722983 -0.0750925 -0.0789461 -0.0663005 -0.0686667 -0.0722983 -0.0750381 -0.0686667 -0.0702961 -0.0750381 -0.0770306 -0.0722983 -0.0750381 -0.0789461 -0.0821174 -0.0750381 -0.0770306 -0.0821174 -0.0845464 -0.0706004 -0.0750925 -0.076972 -0.0819151 -0.0750925 -0.0789461 -0.0819151 -0.0862324 -0.076972 -0.0819151 -0.0838962 -0.0892989 -0.0819151 -0.0862324 -0.0892989 -0.0941018 -0.0789461 -0.0821174 -0.0862324 -0.0898897 -0.0821174 -0.0845464 -0.0898897 -0.0928314 -0.0862324 -0.0898897 -0.0941018 -0.098287 -0.0898897 -0.0928314 -0.098287 -0.101811 -9.58903e-05 -9.70081e-05 -0.0114457 -0.0114518 -9.70081e-05 -9.62959e-05 -0.0114518 -0.0112857 -0.0114457 -0.0114518 -0.0205235 -0.0205179 -0.0114518 -0.0112857 -0.0205179 -0.0202099 -9.62959e-05 -9.36259e-05 -0.0112857 -0.0109442 -9.36259e-05 -8.88935e-05 -0.0109442 -0.0104276 -0.0112857 -0.0109442 -0.0202099 -0.0195957 -0.0109442 -0.0104276 -0.0195957 -0.018677 -0.0205235 -0.0205179 -0.0276773 -0.0276546 -0.0205179 -0.0202099 -0.0276546 -0.0272318 -0.0276773 -0.0276546 -0.0333846 -0.0333501 -0.0276546 -0.0272318 -0.0333501 -0.0328405 -0.0202099 -0.0195957 -0.0272318 -0.0264048 -0.0195957 -0.018677 -0.0264048 -0.0251771 -0.0272318 -0.0264048 -0.0328405 -0.0318512 -0.0264048 -0.0251771 -0.0318512 -0.0303867 -8.88935e-05 -8.20338e-05 -0.0104276 -0.00974021 -8.20338e-05 -7.30459e-05 -0.00974021 -0.0088916 -0.0104276 -0.00974021 -0.018677 -0.0174628 -0.00974021 -0.0088916 -0.0174628 -0.0159712 -7.30459e-05 -6.20137e-05 -0.0088916 -0.00789794 -6.20137e-05 -4.91334e-05 -0.00789794 -0.00678373 -0.0088916 -0.00789794 -0.0159712 -0.0142316 -0.00789794 -0.00678373 -0.0142316 -0.0122873 -0.018677 -0.0174628 -0.0251771 -0.0235616 -0.0174628 -0.0159712 -0.0235616 -0.0215829 -0.0251771 -0.0235616 -0.0303867 -0.0284624 -0.0235616 -0.0215829 -0.0284624 -0.0261074 -0.0159712 -0.0142316 -0.0215829 -0.0192804 -0.0142316 -0.0122873 -0.0192804 -0.016711 -0.0215829 -0.0192804 -0.0261074 -0.0233681 -0.0192804 -0.016711 -0.0233681 -0.0203108 -0.0333846 -0.0333501 -0.038101 -0.0380675 -0.0333501 -0.0328405 -0.0380675 -0.0374987 -0.038101 -0.0380675 -0.0422326 -0.0422188 -0.0380675 -0.0374987 -0.0422188 -0.0416181 -0.0328405 -0.0318512 -0.0374987 -0.0363887 -0.0318512 -0.0303867 -0.0363887 -0.0347413 -0.0374987 -0.0363887 -0.0416181 -0.0404216 -0.0363887 -0.0347413 -0.0404216 -0.038631 -0.0422326 -0.0422188 -0.0461298 -0.0461596 -0.0422188 -0.0416181 -0.0461596 -0.0455545 -0.0461298 -0.0461596 -0.0500821 -0.0501845 -0.0461596 -0.0455545 -0.0501845 -0.0496045 -0.0416181 -0.0404216 -0.0455545 -0.044301 -0.0404216 -0.038631 -0.044301 -0.0423965 -0.0455545 -0.044301 -0.0496045 -0.048322 -0.044301 -0.0423965 -0.048322 -0.0463274 -0.0303867 -0.0284624 -0.0347413 -0.0325729 -0.0284624 -0.0261074 -0.0325729 -0.0299151 -0.0347413 -0.0325729 -0.038631 -0.0362614 -0.0325729 -0.0299151 -0.0362614 -0.0333449 -0.0261074 -0.0233681 -0.0299151 -0.0268185 -0.0233681 -0.0203108 -0.0268185 -0.0233566 -0.0299151 -0.0268185 -0.0333449 -0.0299349 -0.0268185 -0.0233566 -0.0299349 -0.0261102 -0.038631 -0.0362614 -0.0423965 -0.0398527 -0.0362614 -0.0333449 -0.0398527 -0.0367001 -0.0423965 -0.0398527 -0.0463274 -0.0436263 -0.0398527 -0.0367001 -0.0436263 -0.0402455 -0.0333449 -0.0299349 -0.0367001 -0.0329933 -0.0299349 -0.0261102 -0.0329933 -0.0288159 -0.0367001 -0.0329933 -0.0402455 -0.0362389 -0.0329933 -0.0288159 -0.0362389 -0.0316944 -4.91334e-05 -3.47346e-05 -0.00678373 -0.00558383 -3.47346e-05 -1.9428e-05 -0.00558383 -0.00434491 -0.00678373 -0.00558383 -0.0122873 -0.0101985 -0.00558383 -0.00434491 -0.0101985 -0.0080445 -1.9428e-05 -3.79852e-06 -0.00434491 -0.00312964 -3.79852e-06 9.4001e-06 -0.00312964 -0.00200347 -0.00434491 -0.00312964 -0.0080445 -0.00592709 -0.00312964 -0.00200347 -0.00592709 -0.00395474 -0.0122873 -0.0101985 -0.016711 -0.0139525 -0.0101985 -0.0080445 -0.0139525 -0.0111054 -0.016711 -0.0139525 -0.0203108 -0.0170256 -0.0139525 -0.0111054 -0.0170256 -0.0136276 -0.0080445 -0.00592709 -0.0111054 -0.00829594 -0.00592709 -0.00395474 -0.00829594 -0.00565914 -0.0111054 -0.00829594 -0.0136276 -0.0102603 -0.00829594 -0.00565914 -0.0102603 -0.00707799 9.4001e-06 1.99371e-05 -0.00200347 -0.00110305 1.99371e-05 5.44865e-05 -0.00110305 -0.000217147 -0.00200347 -0.00110305 -0.00395474 -0.00231644 -0.00110305 -0.000217147 -0.00231644 -0.000809425 5.44865e-05 -1.13993e-05 -0.000217147 -0.00095162 -1.13993e-05 0.00768234 -0.00095162 0.00681482 -0.000217147 -0.00095162 -0.000809425 -0.00116751 -0.00095162 0.00681482 -0.00116751 0.00708819 -0.00395474 -0.00231644 -0.00565914 -0.00341104 -0.00231644 -0.000809425 -0.00341104 -0.00137848 -0.00565914 -0.00341104 -0.00707799 -0.00431856 -0.00341104 -0.00137848 -0.00431856 -0.00184447 -0.000809425 -0.00116751 -0.00137848 -0.00134607 -0.00116751 0.00708819 -0.00134607 0.00692405 -0.00137848 -0.00134607 -0.00184447 -0.00146953 -0.00134607 0.00692405 -0.00146953 0.00680686 -0.0203108 -0.0170256 -0.0233566 -0.0196287 -0.0170256 -0.0136276 -0.0196287 -0.0157622 -0.0233566 -0.0196287 -0.0261102 -0.0219789 -0.0196287 -0.0157622 -0.0219789 -0.0176805 -0.0136276 -0.0102603 -0.0157622 -0.0119156 -0.0102603 -0.00707799 -0.0119156 -0.00826145 -0.0157622 -0.0119156 -0.0176805 -0.0133896 -0.0119156 -0.00826145 -0.0133896 -0.00929989 -0.0261102 -0.0219789 -0.0288159 -0.0242849 -0.0219789 -0.0176805 -0.0242849 -0.0195542 -0.0288159 -0.0242849 -0.0316944 -0.0267395 -0.0242849 -0.0195542 -0.0267395 -0.0215447 -0.0176805 -0.0133896 -0.0195542 -0.0148175 -0.0133896 -0.00929989 -0.0148175 -0.0102932 -0.0195542 -0.0148175 -0.0215447 -0.0163278 -0.0148175 -0.0102932 -0.0163278 -0.0113365 -0.00707799 -0.00431856 -0.00826145 -0.00506127 -0.00431856 -0.00184447 -0.00506127 -0.00221206 -0.00826145 -0.00506127 -0.00929989 -0.00569921 -0.00506127 -0.00221206 -0.00569921 -0.00251715 -0.00184447 -0.00146953 -0.00221206 -0.00156442 -0.00146953 0.00680686 -0.00156442 0.00675086 -0.00221206 -0.00156442 -0.00251715 -0.00164756 -0.00156442 0.00675086 -0.00164756 0.0067538 -0.00929989 -0.00569921 -0.0102932 -0.00629958 -0.00569921 -0.00251715 -0.00629958 -0.00279661 -0.0102932 -0.00629958 -0.0113365 -0.00692522 -0.00629958 -0.00279661 -0.00692522 -0.0030834 -0.00251715 -0.00164756 -0.00279661 -0.00173058 -0.00164756 0.0067538 -0.00173058 0.00681894 -0.00279661 -0.00173058 -0.0030834 -0.00182356 -0.00173058 0.00681894 -0.00182356 0.00694538 -0.0500821 -0.0501845 -0.0543197 -0.0545296 -0.0501845 -0.0496045 -0.0545296 -0.0540088 -0.0543197 -0.0545296 -0.0590195 -0.0593794 -0.0545296 -0.0540088 -0.0593794 -0.0589589 -0.0496045 -0.048322 -0.0540088 -0.0527274 -0.048322 -0.0463274 -0.0527274 -0.050666 -0.0540088 -0.0527274 -0.0589589 -0.0577158 -0.0527274 -0.050666 -0.0577158 -0.0556166 -0.0590195 -0.0593794 -0.0643133 -0.0648752 -0.0593794 -0.0589589 -0.0648752 -0.0646076 -0.0643133 -0.0648752 -0.0702961 -0.0711239 -0.0648752 -0.0646076 -0.0711239 -0.0710768 -0.0589589 -0.0577158 -0.0646076 -0.0634521 -0.0577158 -0.0556166 -0.0634521 -0.0613563 -0.0646076 -0.0634521 -0.0710768 -0.0700765 -0.0634521 -0.0613563 -0.0700765 -0.0680458 -0.0463274 -0.0436263 -0.050666 -0.047821 -0.0436263 -0.0402455 -0.047821 -0.0442118 -0.050666 -0.047821 -0.0556166 -0.0526438 -0.047821 -0.0442118 -0.0526438 -0.0488055 -0.0402455 -0.0362389 -0.0442118 -0.0398898 -0.0362389 -0.0316944 -0.0398898 -0.0349462 -0.0442118 -0.0398898 -0.0488055 -0.0441468 -0.0398898 -0.0349462 -0.0441468 -0.0387605 -0.0556166 -0.0526438 -0.0613563 -0.058283 -0.0526438 -0.0488055 -0.058283 -0.0542227 -0.0613563 -0.058283 -0.0680458 -0.0649202 -0.058283 -0.0542227 -0.0649202 -0.0606631 -0.0488055 -0.0441468 -0.0542227 -0.0492082 -0.0441468 -0.0387605 -0.0492082 -0.0433302 -0.0542227 -0.0492082 -0.0606631 -0.0552861 -0.0492082 -0.0433302 -0.0552861 -0.0488704 -0.0702961 -0.0711239 -0.0770306 -0.0782016 -0.0711239 -0.0710768 -0.0782016 -0.0784619 -0.0770306 -0.0782016 -0.0845464 -0.0861518 -0.0782016 -0.0784619 -0.0861518 -0.0868285 -0.0710768 -0.0700765 -0.0784619 -0.0777094 -0.0700765 -0.0680458 -0.0777094 -0.0758356 -0.0784619 -0.0777094 -0.0868285 -0.0864476 -0.0777094 -0.0758356 -0.0864476 -0.084862 -0.0845464 -0.0861518 -0.0928314 -0.0949734 -0.0861518 -0.0868285 -0.0949734 -0.0961969 -0.0928314 -0.0949734 -0.101811 -0.104594 -0.0949734 -0.0961969 -0.104594 -0.10651 -0.0868285 -0.0864476 -0.0961969 -0.0963457 -0.0864476 -0.084862 -0.0963457 -0.0952283 -0.0961969 -0.0963457 -0.10651 -0.107378 -0.0963457 -0.0952283 -0.107378 -0.10696 -0.0680458 -0.0649202 -0.0758356 -0.0727383 -0.0649202 -0.0606631 -0.0727383 -0.0683415 -0.0758356 -0.0727383 -0.084862 -0.0819203 -0.0727383 -0.0683415 -0.0819203 -0.0774903 -0.0606631 -0.0552861 -0.0683415 -0.0626215 -0.0552861 -0.0488704 -0.0626215 -0.0556374 -0.0683415 -0.0626215 -0.0774903 -0.0714924 -0.0626215 -0.0556374 -0.0714924 -0.0639427 -0.084862 -0.0819203 -0.0952283 -0.0926311 -0.0819203 -0.0774903 -0.0926311 -0.0883446 -0.0952283 -0.0926311 -0.10696 -0.10496