# vtk DataFile Version 3.0
#This file was generated by the deal.II library on 2026/1/5 at 14:19:30
ASCII
DATASET UNSTRUCTURED_GRID

POINTS 4096 double
0 0 0
0.03125 0 0
0 0.03125 0
0.03125 0.03125 0
0.03125 0 0
0.0625 0 0
0.03125 0.03125 0
0.0625 0.03125 0
0 0.03125 0
0.03125 0.03125 0
0 0.0625 0
0.03125 0.0625 0
0.03125 0.03125 0
0.0625 0.03125 0
0.03125 0.0625 0
0.0625 0.0625 0
0.0625 0 0
0.09375 0 0
0.0625 0.03125 0
0.09375 0.03125 0
0.09375 0 0
0.125 0 0
0.09375 0.03125 0
0.125 0.03125 0
0.0625 0.03125 0
0.09375 0.03125 0
0.0625 0.0625 0
0.09375 0.0625 0
0.09375 0.03125 0
0.125 0.03125 0
0.09375 0.0625 0
0.125 0.0625 0
0 0.0625 0
0.03125 0.0625 0
0 0.09375 0
0.03125 0.09375 0
0.03125 0.0625 0
0.0625 0.0625 0
0.03125 0.09375 0
0.0625 0.09375 0
0 0.09375 0
0.03125 0.09375 0
0 0.125 0
0.03125 0.125 0
0.03125 0.09375 0
0.0625 0.09375 0
0.03125 0.125 0
0.0625 0.125 0
0.0625 0.0625 0
0.09375 0.0625 0
0.0625 0.09375 0
0.09375 0.09375 0
0.09375 0.0625 0
0.125 0.0625 0
0.09375 0.09375 0
0.125 0.09375 0
0.0625 0.09375 0
0.09375 0.09375 0
0.0625 0.125 0
0.09375 0.125 0
0.09375 0.09375 0
0.125 0.09375 0
0.09375 0.125 0
0.125 0.125 0
0.125 0 0
0.15625 0 0
0.125 0.03125 0
0.15625 0.03125 0
0.15625 0 0
0.1875 0 0
0.15625 0.03125 0
0.1875 0.03125 0
0.125 0.03125 0
0.15625 0.03125 0
0.125 0.0625 0
0.15625 0.0625 0
0.15625 0.03125 0
0.1875 0.03125 0
0.15625 0.0625 0
0.1875 0.0625 0
0.1875 0 0
0.21875 0 0
0.1875 0.03125 0
0.21875 0.03125 0
0.21875 0 0
0.25 0 0
0.21875 0.03125 0
0.25 0.03125 0
0.1875 0.03125 0
0.21875 0.03125 0
0.1875 0.0625 0
0.21875 0.0625 0
0.21875 0.03125 0
0.25 0.03125 0
0.21875 0.0625 0
0.25 0.0625 0
0.125 0.0625 0
0.15625 0.0625 0
0.125 0.09375 0
0.15625 0.09375 0
0.15625 0.0625 0
0.1875 0.0625 0
0.15625 0.09375 0
0.1875 0.09375 0
0.125 0.09375 0
0.15625 0.09375 0
0.125 0.125 0
0.15625 0.125 0
0.15625 0.09375 0
0.1875 0.09375 0
0.15625 0.125 0
0.1875 0.125 0
0.1875 0.0625 0
0.21875 0.0625 0
0.1875 0.09375 0
0.21875 0.09375 0
0.21875 0.0625 0
0.25 0.0625 0
0.21875 0.09375 0
0.25 0.09375 0
0.1875 0.09375 0
0.21875 0.09375 0
0.1875 0.125 0
0.21875 0.125 0
0.21875 0.09375 0
0.25 0.09375 0
0.21875 0.125 0
0.25 0.125 0
0 0.125 0
0.03125 0.125 0
0 0.15625 0
0.03125 0.15625 0
0.03125 0.125 0
0.0625 0.125 0
0.03125 0.15625 0
0.0625 0.15625 0
0 0.15625 0
0.03125 0.15625 0
0 0.1875 0
0.03125 0.1875 0
0.03125 0.15625 0
0.0625 0.15625 0
0.03125 0.1875 0
0.0625 0.1875 0
0.0625 0.125 0
0.09375 0.125 0
0.0625 0.15625 0
0.09375 0.15625 0
0.09375 0.125 0
0.125 0.125 0
0.09375 0.15625 0
0.125 0.15625 0
0.0625 0.15625 0
0.09375 0.15625 0
0.0625 0.1875 0
0.09375 0.1875 0
0.09375 0.15625 0
0.125 0.15625 0
0.09375 0.1875 0
0.125 0.1875 0
0 0.1875 0
0.03125 0.1875 0
0 0.21875 0
0.03125 0.21875 0
0.03125 0.1875 0
0.0625 0.1875 0
0.03125 0.21875 0
0.0625 0.21875 0
0 0.21875 0
0.03125 0.21875 0
0 0.25 0
0.03125 0.25 0
0.03125 0.21875 0
0.0625 0.21875 0
0.03125 0.25 0
0.0625 0.25 0
0.0625 0.1875 0
0.09375 0.1875 0
0.0625 0.21875 0
0.09375 0.21875 0
0.09375 0.1875 0
0.125 0.1875 0
0.09375 0.21875 0
0.125 0.21875 0
0.0625 0.21875 0
0.09375 0.21875 0
0.0625 0.25 0
0.09375 0.25 0
0.09375 0.21875 0
0.125 0.21875 0
0.09375 0.25 0
0.125 0.25 0
0.125 0.125 0
0.15625 0.125 0
0.125 0.15625 0
0.15625 0.15625 0
0.15625 0.125 0
0.1875 0.125 0
0.15625 0.15625 0
0.1875 0.15625 0
0.125 0.15625 0
0.15625 0.15625 0
0.125 0.1875 0
0.15625 0.1875 0
0.15625 0.15625 0
0.1875 0.15625 0
0.15625 0.1875 0
0.1875 0.1875 0
0.1875 0.125 0
0.21875 0.125 0
0.1875 0.15625 0
0.21875 0.15625 0
0.21875 0.125 0
0.25 0.125 0
0.21875 0.15625 0
0.25 0.15625 0
0.1875 0.15625 0
0.21875 0.15625 0
0.1875 0.1875 0
0.21875 0.1875 0
0.21875 0.15625 0
0.25 0.15625 0
0.21875 0.1875 0
0.25 0.1875 0
0.125 0.1875 0
0.15625 0.1875 0
0.125 0.21875 0
0.15625 0.21875 0
0.15625 0.1875 0
0.1875 0.1875 0
0.15625 0.21875 0
0.1875 0.21875 0
0.125 0.21875 0
0.15625 0.21875 0
0.125 0.25 0
0.15625 0.25 0
0.15625 0.21875 0
0.1875 0.21875 0
0.15625 0.25 0
0.1875 0.25 0
0.1875 0.1875 0
0.21875 0.1875 0
0.1875 0.21875 0
0.21875 0.21875 0
0.21875 0.1875 0
0.25 0.1875 0
0.21875 0.21875 0
0.25 0.21875 0
0.1875 0.21875 0
0.21875 0.21875 0
0.1875 0.25 0
0.21875 0.25 0
0.21875 0.21875 0
0.25 0.21875 0
0.21875 0.25 0
0.25 0.25 0
0.25 0 0
0.28125 0 0
0.25 0.03125 0
0.28125 0.03125 0
0.28125 0 0
0.3125 0 0
0.28125 0.03125 0
0.3125 0.03125 0
0.25 0.03125 0
0.28125 0.03125 0
0.25 0.0625 0
0.28125 0.0625 0
0.28125 0.03125 0
0.3125 0.03125 0
0.28125 0.0625 0
0.3125 0.0625 0
0.3125 0 0
0.34375 0 0
0.3125 0.03125 0
0.34375 0.03125 0
0.34375 0 0
0.375 0 0
0.34375 0.03125 0
0.375 0.03125 0
0.3125 0.03125 0
0.34375 0.03125 0
0.3125 0.0625 0
0.34375 0.0625 0
0.34375 0.03125 0
0.375 0.03125 0
0.34375 0.0625 0
0.375 0.0625 0
0.25 0.0625 0
0.28125 0.0625 0
0.25 0.09375 0
0.28125 0.09375 0
0.28125 0.0625 0
0.3125 0.0625 0
0.28125 0.09375 0
0.3125 0.09375 0
0.25 0.09375 0
0.28125 0.09375 0
0.25 0.125 0
0.28125 0.125 0
0.28125 0.09375 0
0.3125 0.09375 0
0.28125 0.125 0
0.3125 0.125 0
0.3125 0.0625 0
0.34375 0.0625 0
0.3125 0.09375 0
0.34375 0.09375 0
0.34375 0.0625 0
0.375 0.0625 0
0.34375 0.09375 0
0.375 0.09375 0
0.3125 0.09375 0
0.34375 0.09375 0
0.3125 0.125 0
0.34375 0.125 0
0.34375 0.09375 0
0.375 0.09375 0
0.34375 0.125 0
0.375 0.125 0
0.375 0 0
0.40625 0 0
0.375 0.03125 0
0.40625 0.03125 0
0.40625 0 0
0.4375 0 0
0.40625 0.03125 0
0.4375 0.03125 0
0.375 0.03125 0
0.40625 0.03125 0
0.375 0.0625 0
0.40625 0.0625 0
0.40625 0.03125 0
0.4375 0.03125 0
0.40625 0.0625 0
0.4375 0.0625 0
0.4375 0 0
0.46875 0 0
0.4375 0.03125 0
0.46875 0.03125 0
0.46875 0 0
0.5 0 0
0.46875 0.03125 0
0.5 0.03125 0
0.4375 0.03125 0
0.46875 0.03125 0
0.4375 0.0625 0
0.46875 0.0625 0
0.46875 0.03125 0
0.5 0.03125 0
0.46875 0.0625 0
0.5 0.0625 0
0.375 0.0625 0
0.40625 0.0625 0
0.375 0.09375 0
0.40625 0.09375 0
0.40625 0.0625 0
0.4375 0.0625 0
0.40625 0.09375 0
0.4375 0.09375 0
0.375 0.09375 0
0.40625 0.09375 0
0.375 0.125 0
0.40625 0.125 0
0.40625 0.09375 0
0.4375 0.09375 0
0.40625 0.125 0
0.4375 0.125 0
0.4375 0.0625 0
0.46875 0.0625 0
0.4375 0.09375 0
0.46875 0.09375 0
0.46875 0.0625 0
0.5 0.0625 0
0.46875 0.09375 0
0.5 0.09375 0
0.4375 0.09375 0
0.46875 0.09375 0
0.4375 0.125 0
0.46875 0.125 0
0.46875 0.09375 0
0.5 0.09375 0
0.46875 0.125 0
0.5 0.125 0
0.25 0.125 0
0.28125 0.125 0
0.25 0.15625 0
0.28125 0.15625 0
0.28125 0.125 0
0.3125 0.125 0
0.28125 0.15625 0
0.3125 0.15625 0
0.25 0.15625 0
0.28125 0.15625 0
0.25 0.1875 0
0.28125 0.1875 0
0.28125 0.15625 0
0.3125 0.15625 0
0.28125 0.1875 0
0.3125 0.1875 0
0.3125 0.125 0
0.34375 0.125 0
0.3125 0.15625 0
0.34375 0.15625 0
0.34375 0.125 0
0.375 0.125 0
0.34375 0.15625 0
0.375 0.15625 0
0.3125 0.15625 0
0.34375 0.15625 0
0.3125 0.1875 0
0.34375 0.1875 0
0.34375 0.15625 0
0.375 0.15625 0
0.34375 0.1875 0
0.375 0.1875 0
0.25 0.1875 0
0.28125 0.1875 0
0.25 0.21875 0
0.28125 0.21875 0
0.28125 0.1875 0
0.3125 0.1875 0
0.28125 0.21875 0
0.3125 0.21875 0
0.25 0.21875 0
0.28125 0.21875 0
0.25 0.25 0
0.28125 0.25 0
0.28125 0.21875 0
0.3125 0.21875 0
0.28125 0.25 0
0.3125 0.25 0
0.3125 0.1875 0
0.34375 0.1875 0
0.3125 0.21875 0
0.34375 0.21875 0
0.34375 0.1875 0
0.375 0.1875 0
0.34375 0.21875 0
0.375 0.21875 0
0.3125 0.21875 0
0.34375 0.21875 0
0.3125 0.25 0
0.34375 0.25 0
0.34375 0.21875 0
0.375 0.21875 0
0.34375 0.25 0
0.375 0.25 0
0.375 0.125 0
0.40625 0.125 0
0.375 0.15625 0
0.40625 0.15625 0
0.40625 0.125 0
0.4375 0.125 0
0.40625 0.15625 0
0.4375 0.15625 0
0.375 0.15625 0
0.40625 0.15625 0
0.375 0.1875 0
0.40625 0.1875 0
0.40625 0.15625 0
0.4375 0.15625 0
0.40625 0.1875 0
0.4375 0.1875 0
0.4375 0.125 0
0.46875 0.125 0
0.4375 0.15625 0
0.46875 0.15625 0
0.46875 0.125 0
0.5 0.125 0
0.46875 0.15625 0
0.5 0.15625 0
0.4375 0.15625 0
0.46875 0.15625 0
0.4375 0.1875 0
0.46875 0.1875 0
0.46875 0.15625 0
0.5 0.15625 0
0.46875 0.1875 0
0.5 0.1875 0
0.375 0.1875 0
0.40625 0.1875 0
0.375 0.21875 0
0.40625 0.21875 0
0.40625 0.1875 0
0.4375 0.1875 0
0.40625 0.21875 0
0.4375 0.21875 0
0.375 0.21875 0
0.40625 0.21875 0
0.375 0.25 0
0.40625 0.25 0
0.40625 0.21875 0
0.4375 0.21875 0
0.40625 0.25 0
0.4375 0.25 0
0.4375 0.1875 0
0.46875 0.1875 0
0.4375 0.21875 0
0.46875 0.21875 0
0.46875 0.1875 0
0.5 0.1875 0
0.46875 0.21875 0
0.5 0.21875 0
0.4375 0.21875 0
0.46875 0.21875 0
0.4375 0.25 0
0.46875 0.25 0
0.46875 0.21875 0
0.5 0.21875 0
0.46875 0.25 0
0.5 0.25 0
0 0.25 0
0.03125 0.25 0
0 0.28125 0
0.03125 0.28125 0
0.03125 0.25 0
0.0625 0.25 0
0.03125 0.28125 0
0.0625 0.28125 0
0 0.28125 0
0.03125 0.28125 0
0 0.3125 0
0.03125 0.3125 0
0.03125 0.28125 0
0.0625 0.28125 0
0.03125 0.3125 0
0.0625 0.3125 0
0.0625 0.25 0
0.09375 0.25 0
0.0625 0.28125 0
0.09375 0.28125 0
0.09375 0.25 0
0.125 0.25 0
0.09375 0.28125 0
0.125 0.28125 0
0.0625 0.28125 0
0.09375 0.28125 0
0.0625 0.3125 0
0.09375 0.3125 0
0.09375 0.28125 0
0.125 0.28125 0
0.09375 0.3125 0
0.125 0.3125 0
0 0.3125 0
0.03125 0.3125 0
0 0.34375 0
0.03125 0.34375 0
0.03125 0.3125 0
0.0625 0.3125 0
0.03125 0.34375 0
0.0625 0.34375 0
0 0.34375 0
0.03125 0.34375 0
0 0.375 0
0.03125 0.375 0
0.03125 0.34375 0
0.0625 0.34375 0
0.03125 0.375 0
0.0625 0.375 0
0.0625 0.3125 0
0.09375 0.3125 0
0.0625 0.34375 0
0.09375 0.34375 0
0.09375 0.3125 0
0.125 0.3125 0
0.09375 0.34375 0
0.125 0.34375 0
0.0625 0.34375 0
0.09375 0.34375 0
0.0625 0.375 0
0.09375 0.375 0
0.09375 0.34375 0
0.125 0.34375 0
0.09375 0.375 0
0.125 0.375 0
0.125 0.25 0
0.15625 0.25 0
0.125 0.28125 0
0.15625 0.28125 0
0.15625 0.25 0
0.1875 0.25 0
0.15625 0.28125 0
0.1875 0.28125 0
0.125 0.28125 0
0.15625 0.28125 0
0.125 0.3125 0
0.15625 0.3125 0
0.15625 0.28125 0
0.1875 0.28125 0
0.15625 0.3125 0
0.1875 0.3125 0
0.1875 0.25 0
0.21875 0.25 0
0.1875 0.28125 0
0.21875 0.28125 0
0.21875 0.25 0
0.25 0.25 0
0.21875 0.28125 0
0.25 0.28125 0
0.1875 0.28125 0
0.21875 0.28125 0
0.1875 0.3125 0
0.21875 0.3125 0
0.21875 0.28125 0
0.25 0.28125 0
0.21875 0.3125 0
0.25 0.3125 0
0.125 0.3125 0
0.15625 0.3125 0
0.125 0.34375 0
0.15625 0.34375 0
0.15625 0.3125 0
0.1875 0.3125 0
0.15625 0.34375 0
0.1875 0.34375 0
0.125 0.34375 0
[...]
POINT_DATA 4096
SCALARS u_x double 1
LOOKUP_TABLE default
1.14692e-05 1.4355e-05 -5.80432e-05 -0.000183929 1.4355e-05 1.00448e-05 -0.000183929 -0.000730829 -5.80432e-05 -0.000183929 -0.000152164 -0.000373496 -0.000183929 -0.000730829 -0.000373496 -0.00131792 1.00448e-05 -6.41711e-06 -0.000730829 -0.00150961 -6.41711e-06 -2.50713e-05 -0.00150961 -0.0023956 -0.000730829 -0.00150961 -0.00131792 -0.00257036 -0.00150961 -0.0023956 -0.00257036 -0.00397105 -0.000152164 -0.000373496 -0.000168784 -0.000485059 -0.000373496 -0.00131792 -0.000485059 -0.00166182 -0.000168784 -0.000485059 -7.99437e-05 -0.00055228 -0.000485059 -0.00166182 -0.00055228 -0.00184057 -0.00131792 -0.00257036 -0.00166182 -0.00319072 -0.00257036 -0.00397105 -0.00319072 -0.00487598 -0.00166182 -0.00319072 -0.00184057 -0.00353164 -0.00319072 -0.00487598 -0.00353164 -0.0053786 -2.50713e-05 -4.29972e-05 -0.0023956 -0.00329997 -4.29972e-05 -5.96588e-05 -0.00329997 -0.00417896 -0.0023956 -0.00329997 -0.00397105 -0.00539847 -0.00329997 -0.00417896 -0.00539847 -0.00678841 -5.96588e-05 -7.51432e-05 -0.00417896 -0.00501142 -7.51432e-05 -8.95009e-05 -0.00501142 -0.00578547 -0.00417896 -0.00501142 -0.00678841 -0.00810648 -0.00501142 -0.00578547 -0.00810648 -0.00933236 -0.00397105 -0.00539847 -0.00487598 -0.00658529 -0.00539847 -0.00678841 -0.00658529 -0.00824786 -0.00487598 -0.00658529 -0.0053786 -0.00724543 -0.00658529 -0.00824786 -0.00724543 -0.00905766 -0.00678841 -0.00810648 -0.00824786 -0.0098243 -0.00810648 -0.00933236 -0.0098243 -0.0112902 -0.00824786 -0.0098243 -0.00905766 -0.0107746 -0.0098243 -0.0112902 -0.0107746 -0.0123704 -7.99437e-05 -0.00055228 0.000117806 -0.000611012 -0.00055228 -0.00184057 -0.000611012 -0.00194699 0.000117806 -0.000611012 0.000423635 -0.000681238 -0.000611012 -0.00194699 -0.000681238 -0.00203878 -0.00184057 -0.00353164 -0.00194699 -0.00375283 -0.00353164 -0.0053786 -0.00375283 -0.00571203 -0.00194699 -0.00375283 -0.00203878 -0.0039539 -0.00375283 -0.00571203 -0.0039539 -0.00601769 0.000423635 -0.000681238 0.000838948 -0.00077137 -0.000681238 -0.00203878 -0.00077137 -0.00214222 0.000838948 -0.00077137 0.00136796 -0.000884757 -0.00077137 -0.00214222 -0.000884757 -0.00226735 -0.00203878 -0.0039539 -0.00214222 -0.00418242 -0.0039539 -0.00601769 -0.00418242 -0.00636364 -0.00214222 -0.00418242 -0.00226735 -0.00445794 -0.00418242 -0.00636364 -0.00445794 -0.00677852 -0.0053786 -0.00724543 -0.00571203 -0.00768963 -0.00724543 -0.00905766 -0.00768963 -0.00960613 -0.00571203 -0.00768963 -0.00601769 -0.00810105 -0.00768963 -0.00960613 -0.00810105 -0.0101174 -0.00905766 -0.0107746 -0.00960613 -0.0114201 -0.0107746 -0.0123704 -0.0114201 -0.0131048 -0.00960613 -0.0114201 -0.0101174 -0.0120239 -0.0114201 -0.0131048 -0.0120239 -0.0137933 -0.00601769 -0.00810105 -0.00636364 -0.00856705 -0.00810105 -0.0101174 -0.00856705 -0.010697 -0.00636364 -0.00856705 -0.00677852 -0.00912456 -0.00856705 -0.010697 -0.00912456 -0.0113895 -0.0101174 -0.0120239 -0.010697 -0.0127092 -0.0120239 -0.0137933 -0.0127092 -0.0145747 -0.010697 -0.0127092 -0.0113895 -0.0135268 -0.0127092 -0.0145747 -0.0135268 -0.015506 -8.95009e-05 -0.00010268 -0.00578547 -0.00649234 -0.00010268 -0.00011457 -0.00649234 -0.00712441 -0.00578547 -0.00649234 -0.00933236 -0.0104512 -0.00649234 -0.00712441 -0.0104512 -0.0114507 -0.00011457 -0.000125043 -0.00712441 -0.00767485 -0.000125043 -0.000133974 -0.00767485 -0.0081376 -0.00712441 -0.00767485 -0.0114507 -0.0123199 -0.00767485 -0.0081376 -0.0123199 -0.0130493 -0.00933236 -0.0104512 -0.0112902 -0.0126276 -0.0104512 -0.0114507 -0.0126276 -0.0138214 -0.0112902 -0.0126276 -0.0123704 -0.0138256 -0.0126276 -0.0138214 -0.0138256 -0.0151239 -0.0114507 -0.0123199 -0.0138214 -0.0148587 -0.0123199 -0.0130493 -0.0148587 -0.0157283 -0.0138214 -0.0148587 -0.0151239 -0.0162514 -0.0148587 -0.0157283 -0.0162514 -0.0171963 -0.000133974 -0.000141248 -0.0081376 -0.00850751 -0.000141248 -0.000146763 -0.00850751 -0.00878031 -0.0081376 -0.00850751 -0.0130493 -0.0136311 -0.00850751 -0.00878031 -0.0136311 -0.0140587 -0.000146763 -0.000150435 -0.00878031 -0.00895267 -0.000150435 -0.000152197 -0.00895267 -0.00902226 -0.00878031 -0.00895267 -0.0140587 -0.0143271 -0.00895267 -0.00902226 -0.0143271 -0.0144328 -0.0130493 -0.0136311 -0.0157283 -0.0164209 -0.0136311 -0.0140587 -0.0164209 -0.016929 -0.0157283 -0.0164209 -0.0171963 -0.0179485 -0.0164209 -0.016929 -0.0179485 -0.0185 -0.0140587 -0.0143271 -0.016929 -0.0172468 -0.0143271 -0.0144328 -0.0172468 -0.0173702 -0.016929 -0.0172468 -0.0185 -0.0188448 -0.0172468 -0.0173702 -0.0188448 -0.0189786 -0.0123704 -0.0138256 -0.0131048 -0.0146403 -0.0138256 -0.0151239 -0.0146403 -0.0160097 -0.0131048 -0.0146403 -0.0137933 -0.0154048 -0.0146403 -0.0160097 -0.0154048 -0.0168413 -0.0151239 -0.0162514 -0.0160097 -0.0171986 -0.0162514 -0.0171963 -0.0171986 -0.0181948 -0.0160097 -0.0171986 -0.0168413 -0.0180882 -0.0171986 -0.0181948 -0.0180882 -0.0191329 -0.0137933 -0.0154048 -0.0145747 -0.0162724 -0.0154048 -0.0168413 -0.0162724 -0.0177846 -0.0145747 -0.0162724 -0.015506 -0.017305 -0.0162724 -0.0177846 -0.017305 -0.0189062 -0.0168413 -0.0180882 -0.0177846 -0.0190967 -0.0180882 -0.0191329 -0.0190967 -0.0201962 -0.0177846 -0.0190967 -0.0189062 -0.0202945 -0.0190967 -0.0201962 -0.0202945 -0.0214578 -0.0171963 -0.0179485 -0.0181948 -0.018988 -0.0179485 -0.0185 -0.018988 -0.01957 -0.0181948 -0.018988 -0.0191329 -0.0199652 -0.018988 -0.01957 -0.0199652 -0.0205769 -0.0185 -0.0188448 -0.01957 -0.0199346 -0.0188448 -0.0189786 -0.0199346 -0.0200774 -0.01957 -0.0199346 -0.0205769 -0.0209615 -0.0199346 -0.0200774 -0.0209615 -0.0211147 -0.0191329 -0.0199652 -0.0201962 -0.0210727 -0.0199652 -0.0205769 -0.0210727 -0.0217182 -0.0201962 -0.0210727 -0.0214578 -0.0223859 -0.0210727 -0.0217182 -0.0223859 -0.0230709 -0.0205769 -0.0209615 -0.0217182 -0.0221261 -0.0209615 -0.0211147 -0.0221261 -0.0222921 -0.0217182 -0.0221261 -0.0230709 -0.0235064 -0.0221261 -0.0222921 -0.0235064 -0.0236879 0.00136796 -0.000884757 0.00201727 -0.00102339 -0.000884757 -0.00226735 -0.00102339 -0.0024184 0.00201727 -0.00102339 0.00279549 -0.00118933 -0.00102339 -0.0024184 -0.00118933 -0.00259852 -0.00226735 -0.00445794 -0.0024184 -0.0047895 -0.00445794 -0.00677852 -0.0047895 -0.00727596 -0.0024184 -0.0047895 -0.00259852 -0.00518395 -0.0047895 -0.00727596 -0.00518395 -0.00786621 0.00279549 -0.00118933 0.00371323 -0.0013852 -0.00118933 -0.00259852 -0.0013852 -0.00281142 0.00371323 -0.0013852 0.00478321 -0.0016143 -0.0013852 -0.00281142 -0.0016143 -0.00306196 -0.00259852 -0.00518395 -0.00281142 -0.00564902 -0.00518395 -0.00786621 -0.00564902 -0.00856058 -0.00281142 -0.00564902 -0.00306196 -0.00619455 -0.00564902 -0.00856058 -0.00619455 -0.00937321 -0.00677852 -0.00912456 -0.00727596 -0.00979131 -0.00912456 -0.0113895 -0.00979131 -0.0122159 -0.00727596 -0.00979131 -0.00786621 -0.0105805 -0.00979131 -0.0122159 -0.0105805 -0.0131919 -0.0113895 -0.0135268 -0.0122159 -0.0145007 -0.0135268 -0.015506 -0.0145007 -0.0166132 -0.0122159 -0.0145007 -0.0131919 -0.0156481 -0.0145007 -0.0166132 -0.0156481 -0.0179146 -0.00786621 -0.0105805 -0.00856058 -0.0115067 -0.0105805 -0.0131919 -0.0115067 -0.0143341 -0.00856058 -0.0115067 -0.00937321 -0.0125876 -0.0115067 -0.0143341 -0.0125876 -0.0156629 -0.0131919 -0.0156481 -0.0143341 -0.0169873 -0.0156481 -0.0179146 -0.0169873 -0.0194292 -0.0143341 -0.0169873 -0.0156629 -0.01854 -0.0169873 -0.0194292 -0.01854 -0.0211792 0.00478321 -0.0016143 0.00602054 -0.00188076 -0.0016143 -0.00306196 -0.00188076 -0.00335656 0.00602054 -0.00188076 0.00744307 -0.0021898 -0.00188076 -0.00335656 -0.0021898 -0.00370379 -0.00306196 -0.00619455 -0.00335656 -0.0068333 -0.00619455 -0.00937321 -0.0068333 -0.0103223 -0.00335656 -0.0068333 -0.00370379 -0.00758203 -0.0068333 -0.0103223 -0.00758203 -0.0114313 0.00744307 -0.0021898 0.00907193 -0.00254803 -0.0021898 -0.00370379 -0.00254803 -0.00411519 0.00907193 -0.00254803 0.0109322 -0.00296398 -0.00254803 -0.00411519 -0.00296398 -0.00460651 -0.00370379 -0.00758203 -0.00411519 -0.00846294 -0.00758203 -0.0114313 -0.00846294 -0.0127313 -0.00411519 -0.00846294 -0.00460651 -0.00950589 -0.00846294 -0.0127313 -0.00950589 -0.0142635 -0.00937321 -0.0125876 -0.0103223 -0.0138457 -0.0125876 -0.0156629 -0.0138457 -0.0172039 -0.0103223 -0.0138457 -0.0114313 -0.01531 -0.0138457 -0.0172039 -0.01531 -0.0189891 -0.0156629 -0.01854 -0.0172039 -0.0203332 -0.01854 -0.0211792 -0.0203332 -0.0231915 -0.0172039 -0.0203332 -0.0189891 -0.0224001 -0.0203332 -0.0231915 -0.0224001 -0.025499 -0.0114313 -0.01531 -0.0127313 -0.0170179 -0.01531 -0.0189891 -0.0170179 -0.0210596 -0.0127313 -0.0170179 -0.0142635 -0.0190186 -0.0170179 -0.0210596 -0.0190186 -0.0234683 -0.0189891 -0.0224001 -0.0210596 -0.0247827 -0.0224001 -0.025499 -0.0247827 -0.0281415 -0.0210596 -0.0247827 -0.0234683 -0.0275334 -0.0247827 -0.0281415 -0.0275334 -0.0311683 -0.015506 -0.017305 -0.0166132 -0.0185306 -0.017305 -0.0189062 -0.0185306 -0.020235 -0.0166132 -0.0185306 -0.0179146 -0.0199679 -0.0185306 -0.020235 -0.0199679 -0.0217899 -0.0189062 -0.0202945 -0.020235 -0.0217115 -0.0202945 -0.0214578 -0.0217115 -0.0229483 -0.020235 -0.0217115 -0.0217899 -0.0233664 -0.0217115 -0.0229483 -0.0233664 -0.0246861 -0.0179146 -0.0199679 -0.0194292 -0.0216359 -0.0199679 -0.0217899 -0.0216359 -0.0235896 -0.0194292 -0.0216359 -0.0211792 -0.0235564 -0.0216359 -0.0235896 -0.0235564 -0.0256547 -0.0217899 -0.0233664 -0.0235896 -0.0252769 -0.0233664 -0.0246861 -0.0252769 -0.0266882 -0.0235896 -0.0252769 -0.0256547 -0.0274627 -0.0252769 -0.0266882 -0.0274627 -0.0289726 -0.0214578 -0.0223859 -0.0229483 -0.0239357 -0.0223859 -0.0230709 -0.0239357 -0.0246663 -0.0229483 -0.0239357 -0.0246861 -0.0257404 -0.0239357 -0.0246663 -0.0257404 -0.0265224 -0.0230709 -0.0235064 -0.0246663 -0.0251339 -0.0235064 -0.0236879 -0.0251339 -0.0253341 -0.0246663 -0.0251339 -0.0265224 -0.0270267 -0.0251339 -0.0253341 -0.0270267 -0.0272488 -0.0246861 -0.0257404 -0.0266882 -0.027816 -0.0257404 -0.0265224 -0.027816 -0.0286548 -0.0266882 -0.027816 -0.0289726 -0.0301793 -0.027816 -0.0286548 -0.0301793 -0.0310793 -0.0265224 -0.0270267 -0.0286548 -0.0292001 -0.0270267 -0.0272488 -0.0292001 -0.0294477 -0.0286548 -0.0292001 -0.0310793 -0.0316695 -0.0292001 -0.0294477 -0.0316695 -0.0319466 -0.0211792 -0.0235564 -0.0231915 -0.0257553 -0.0235564 -0.0256547 -0.0257553 -0.0280094 -0.0231915 -0.0257553 -0.025499 -0.0282633 -0.0257553 -0.0280094 -0.0282633 -0.0306815 -0.0256547 -0.0274627 -0.0280094 -0.0299454 -0.0274627 -0.0289726 -0.0299454 -0.0315588 -0.0280094 -0.0299454 -0.0306815 -0.0327495 -0.0299454 -0.0315588 -0.0327495 -0.0344679 -0.025499 -0.0282633 -0.0281415 -0.0311169 -0.0282633 -0.0306815 -0.0311169 -0.0337028 -0.0281415 -0.0311169 -0.0311683 -0.0343597 -0.0311169 -0.0337028 -0.0343597 -0.0371099 -0.0306815 -0.0327495 -0.0337028 -0.0359018 -0.0327495 -0.0344679 -0.0359018 -0.0377218 -0.0337028 -0.0359018 -0.0371099 -0.0394316 -0.0359018 -0.0377218 -0.0394316 -0.0413429 -0.0289726 -0.0301793 -0.0315588 -0.0328479 -0.0301793 -0.0310793 -0.0328479 -0.0338121 -0.0315588 -0.0328479 -0.0344679 -0.0358398 -0.0328479 -0.0338121 -0.0358398 -0.0368688 -0.0310793 -0.0316695 -0.0338121 -0.0344504 -0.0316695 -0.0319466 -0.0344504 -0.0347608 -0.0338121 -0.0344504 -0.0368688 -0.0375572 -0.0344504 -0.0347608 -0.0375572 -0.0379048 -0.0344679 -0.0358398 -0.0377218 -0.0391728 -0.0358398 -0.0368688 -0.0391728 -0.0402641 -0.0377218 -0.0391728 -0.0413429 -0.0428631 -0.0391728 -0.0402641 -0.0428631 -0.0440096 -0.0368688 -0.0375572 -0.0402641 -0.0410026 -0.0375572 -0.0379048 -0.0410026 -0.0413908 -0.0402641 -0.0410026 -0.0440096 -0.0447955 -0.0410026 -0.0413908 -0.0447955 -0.0452271 -0.000152197 -0.000152 -0.00902226 -0.00898773 -0.000152 -0.000149815 -0.00898773 -0.00884879 -0.00902226 -0.00898773 -0.0144328 -0.0143739 -0.00898773 -0.00884879 -0.0143739 -0.0141501 -0.000149815 -0.000145637 -0.00884879 -0.00860621 -0.000145637 -0.000139488 -0.00860621 -0.00826189 -0.00884879 -0.00860621 -0.0141501 -0.0137628 -0.00860621 -0.00826189 -0.0137628 -0.0132152 -0.0144328 -0.0143739 -0.0173702 -0.0172972 -0.0143739 -0.0141501 -0.0172972 -0.0170275 -0.0173702 -0.0172972 -0.0189786 -0.0188991 -0.0172972 -0.0170275 -0.0188991 -0.0186062 -0.0141501 -0.0137628 -0.0170275 -0.0165629 -0.0137628 -0.0132152 -0.0165629 -0.0159072 -0.0170275 -0.0165629 -0.0186062 -0.0181016 -0.0165629 -0.0159072 -0.0181016 -0.0173892 -0.000139488 -0.00013141 -0.00826189 -0.00781888 -0.00013141 -0.000121474 -0.00781888 -0.00728139 -0.00826189 -0.00781888 -0.0132152 -0.0125122 -0.00781888 -0.00728139 -0.0125122 -0.0116604 -0.000121474 -0.000109777 -0.00728139 -0.00665484 -0.000109777 -9.64411e-05 -0.00665484 -0.00594575 -0.00728139 -0.00665484 -0.0116604 -0.0106684 -0.00665484 -0.00594575 -0.0106684 -0.0095468 -0.0132152 -0.0125122 -0.0159072 -0.0150661 -0.0125122 -0.0116604 -0.0150661 -0.0140476 -0.0159072 -0.0150661 -0.0173892 -0.0164751 -0.0150661 -0.0140476 -0.0164751 -0.0153678 -0.0116604 -0.0106684 -0.0140476 -0.0128619 -0.0106684 -0.0095468 -0.0128619 -0.0115215 -0.0140476 -0.0128619 -0.0153678 -0.0140782 -0.0128619 -0.0115215 -0.0140782 -0.0126197 -0.0189786 -0.0188991 -0.0200774 -0.019996 -0.0188991 -0.0186062 -0.019996 -0.0196901 -0.0200774 -0.019996 -0.0211147 -0.0210339 -0.019996 -0.0196901 -0.0210339 -0.0207183 -0.0186062 -0.0181016 -0.0196901 -0.0191612 -0.0181016 -0.0173892 -0.0191612 -0.0184131 -0.0196901 -0.0191612 -0.0207183 -0.0201693 -0.0191612 -0.0184131 -0.0201693 -0.0193903 -0.0211147 -0.0210339 -0.0222921 -0.0222132 -0.0210339 -0.0207183 -0.0222132 -0.0218884 -0.0222921 -0.0222132 -0.0236879 -0.0236123 -0.0222132 -0.0218884 -0.0236123 -0.0232781 -0.0207183 -0.0201693 -0.0218884 -0.0213186 -0.0201693 -0.0193903 -0.0213186 -0.0205066 -0.0218884 -0.0213186 -0.0232781 -0.0226854 -0.0213186 -0.0205066 -0.0226854 -0.0218362 -0.0173892 -0.0164751 -0.0184131 -0.0174519 -0.0164751 -0.0153678 -0.0174519 -0.0162861 -0.0184131 -0.0174519 -0.0193903 -0.018387 -0.0174519 -0.0162861 -0.018387 -0.0171677 -0.0153678 -0.0140782 -0.0162861 -0.0149267 -0.0140782 -0.0126197 -0.0149267 -0.0133875 -0.0162861 -0.0149267 -0.0171677 -0.0157433 -0.0149267 -0.0133875 -0.0157433 -0.0141277 -0.0193903 -0.018387 -0.0205066 -0.0194575 -0.018387 -0.0171677 -0.0194575 -0.0181791 -0.0205066 -0.0194575 -0.0218362 -0.0207349 -0.0194575 -0.0181791 -0.0207349 -0.0193883 -0.0171677 -0.0157433 -0.0181791 -0.0166819 -0.0157433 -0.0141277 -0.0166819 -0.0149799 -0.0181791 -0.0166819 -0.0193883 -0.0178064 -0.0166819 -0.0149799 -0.0178064 -0.0160028 -9.64411e-05 -8.15554e-05 -0.00594575 -0.00516201 -8.15554e-05 -6.53306e-05 -0.00516201 -0.00431228 -0.00594575 -0.00516201 -0.0095468 -0.00830813 -0.00516201 -0.00431228 -0.00830813 -0.00696716 -6.53306e-05 -4.71707e-05 -0.00431228 -0.00341374 -4.71707e-05 -3.00704e-05 -0.00341374 -0.00246795 -0.00431228 -0.00341374 -0.00696716 -0.00554988 -0.00341374 -0.00246795 -0.00554988 -0.0040683 -0.0095468 -0.00830813 -0.0115215 -0.0100416 -0.00830813 -0.00696716 -0.0100416 -0.00844019 -0.0115215 -0.0100416 -0.0126197 -0.0110087 -0.0100416 -0.00844019 -0.0110087 -0.00926468 -0.00696716 -0.00554988 -0.00844019 -0.00674743 -0.00554988 -0.0040683 -0.00674743 -0.00498093 -0.00844019 -0.00674743 -0.00926468 -0.00741956 -0.00674743 -0.00498093 -0.00741956 -0.00549295 -3.00704e-05 -1.0748e-05 -0.00246795 -0.00163263 -1.0748e-05 7.21009e-05 -0.00163263 -0.000355595 -0.00246795 -0.00163263 -0.0040683 -0.00272025 -0.00163263 -0.000355595 -0.00272025 -0.000910692 7.21009e-05 -4.23736e-05 -0.000355595 -0.00207166 -4.23736e-05 0.0159179 -0.00207166 0.0141604 -0.000355595 -0.00207166 -0.000910692 -0.00235472 -0.00207166 0.0141604 -0.00235472 0.0149107 -0.0040683 -0.00272025 -0.00498093 -0.00334821 -0.00272025 -0.000910692 -0.00334821 -0.00125297 -0.00498093 -0.00334821 -0.00549295 -0.00369628 -0.00334821 -0.00125297 -0.00369628 -0.00143712 -0.000910692 -0.00235472 -0.00125297 -0.00251128 -0.00235472 0.0149107 -0.00251128 0.0148515 -0.00125297 -0.00251128 -0.00143712 -0.00258167 -0.00251128 0.0148515 -0.00258167 0.0149332 -0.0126197 -0.0110087 -0.0133875 -0.0116856 -0.0110087 -0.00926468 -0.0116856 -0.00984103 -0.0133875 -0.0116856 -0.0141277 -0.0123383 -0.0116856 -0.00984103 -0.0123383 -0.0103959 -0.00926468 -0.00741956 -0.00984103 -0.00788694 -0.00741956 -0.00549295 -0.00788694 -0.005844 -0.00984103 -0.00788694 -0.0103959 -0.00833469 -0.00788694 -0.005844 -0.00833469 -0.00617712 -0.0141277 -0.0123383 -0.0149799 -0.0130906 -0.0123383 -0.0103959 -0.0130906 -0.0110355 -0.0149799 -0.0130906 -0.0160028 -0.0139952 -0.0130906 -0.0110355 -0.0139952 -0.011806 -0.0103959 -0.00833469 -0.0110355 -0.00885068 -0.00833469 -0.00617712 -0.00885068 -0.0065609 -0.0110355 -0.00885068 -0.011806 -0.00947329 -0.00885068 -0.0065609 -0.00947329 -0.00702518 -0.00549295 -0.00369628 -0.005844 -0.00392898 -0.00369628 -0.00143712 -0.00392898 -0.00154808 -0.005844 -0.00392898 -0.00617712 -0.0041479 -0.00392898 -0.00154808 -0.0041479 -0.00164822 -0.00143712 -0.00258167 -0.00154808 -0.00264077 -0.00258167 0.0149332 -0.00264077 0.0151414 -0.00154808 -0.00264077 -0.00164822 -0.00271475 -0.00264077 0.0151414 -0.00271475 0.0154561 -0.00617712 -0.0041479 -0.0065609 -0.00440131 -0.0041479 -0.00164822 -0.00440131 -0.00176397 -0.0065609 -0.00440131 -0.00702518 -0.00470955 -0.00440131 -0.00176397 -0.00470955 -0.00190554 -0.00164822 -0.00271475 -0.00176397 -0.00281019 -0.00271475 0.0154561 -0.00281019 0.0158829 -0.00176397 -0.00281019 -0.00190554 -0.00293065 -0.00281019 0.0158829 -0.00293065 0.0164257 -0.0236879 -0.0236123 -0.0253341 -0.0252633 -0.0236123 -0.0232781 -0.0252633 -0.0249197 -0.0253341 -0.0252633 -0.0272488 -0.0271851 -0.0252633 -0.0249197 -0.0271851 -0.0268328 -0.0232781 -0.0226854 -0.0249197 -0.0243022 -0.0226854 -0.0218362 -0.0243022 -0.023412 -0.0249197 -0.0243022 -0.0268328 -0.0261898 -0.0243022 -0.023412 -0.0261898 -0.0252556 -0.0272488 -0.0271851 -0.0294477 -0.029394 -0.0271851 -0.0268328 -0.029394 -0.0290351 -0.0294477 -0.029394 -0.0319466 -0.0319066 -0.029394 -0.0290351 -0.0319066 -0.0315446 -0.0268328 -0.0261898 -0.0290351 -0.0283674 -0.0261898 -0.0252556 -0.0283674 -0.0273882 -0.0290351 -0.0283674 -0.0315446 -0.0308551 -0.0283674 -0.0273882 -0.0308551 -0.0298325 -0.0218362 -0.0207349 -0.023412 -0.0222519 -0.0207349 -0.0193883 -0.0222519 -0.0208276 -0.023412 -0.0222519 -0.0252556 -0.0240313 -0.0222519 -0.0208276 -0.0240313 -0.0225207 -0.0193883 -0.0178064 -0.0208276 -0.0191481 -0.0178064 -0.0160028 -0.0191481 -0.0172262 -0.0208276 -0.0191481 -0.0225207 -0.020731 -0.0191481 -0.0172262 -0.020731 -0.0186738 -0.0252556 -0.0240313 -0.0273882 -0.0260961 -0.0240313 -0.0225207 -0.0260961 -0.0244921 -0.0273882 -0.0260961 -0.0298325 -0.0284717 -0.0260961 -0.0244921 -0.0284717 -0.02677 -0.0225207 -0.020731 -0.0244921 -0.0225809 -0.020731 -0.0186738 -0.0225809 -0.020372 -0.0244921 -0.0225809 -0.02677 -0.024728 -0.0225809 -0.020372 -0.024728 -0.022352 -0.0319466 -0.0319066 -0.0347608 -0.0347393 -0.0319066 -0.0315446 -0.0347393 -0.0343799 -0.0347608 -0.0347393 -0.0379048 -0.0379079 -0.0347393 -0.0343799 -0.0379079 -0.0375592 -0.0315446 -0.0308551 -0.0343799 -0.0336744 -0.0308551 -0.0298325 -0.0336744 -0.0326135 -0.0343799 -0.0336744 -0.0375592 -0.0368473 -0.0336744 -0.0326135 -0.0368473 -0.0357581 -0.0379048 -0.0379079 -0.0413908 -0.041426 -0.0379079 -0.0375592 -0.041426 -0.0410992 -0.0413908 -0.041426 -0.0452271 -0.0453031 -0.041426 -0.0410992 -0.0453031 -0.0450133 -0.0375592 -0.0368473 -0.0410992 -0.0403955 -0.0368473 -0.0357581 -0.0403955 -0.0392943 -0.0410992 -0.0403955 -0.0450133 -0.0443383 -0.0403955 -0.0392943 -0.0443383 -0.0432502 -0.0298325 -0.0284717 -0.0326135 -0.0311872 -0.0284717 -0.02677 -0.0311872 -0.0293873 -0.0326135 -0.0311872 -0.0357581 -0.0342751 -0.0311872 -0.0293873 -0.0342751 -0.0323824 -0.02677 -0.024728 -0.0293873 -0.0272088 -0.024728 -0.022352 -0.0272088 -0.0246526 -0.0293873 -0.0272088 -0.0323824 -0.0300667 -0.0272088 -0.0246526 -0.0300667 -0.0273213 -0.0357581 -0.0342751 -0.0392943 -0.0377711 -0.0342751 -0.03