# vtk DataFile Version 3.0
#This file was generated by the deal.II library on 2026/1/5 at 14:19:35
ASCII
DATASET UNSTRUCTURED_GRID

POINTS 4096 double
0 0 0
0.03125 0 0
0 0.03125 0
0.03125 0.03125 0
0.03125 0 0
0.0625 0 0
0.03125 0.03125 0
0.0625 0.03125 0
0 0.03125 0
0.03125 0.03125 0
0 0.0625 0
0.03125 0.0625 0
0.03125 0.03125 0
0.0625 0.03125 0
0.03125 0.0625 0
0.0625 0.0625 0
0.0625 0 0
0.09375 0 0
0.0625 0.03125 0
0.09375 0.03125 0
0.09375 0 0
0.125 0 0
0.09375 0.03125 0
0.125 0.03125 0
0.0625 0.03125 0
0.09375 0.03125 0
0.0625 0.0625 0
0.09375 0.0625 0
0.09375 0.03125 0
0.125 0.03125 0
0.09375 0.0625 0
0.125 0.0625 0
0 0.0625 0
0.03125 0.0625 0
0 0.09375 0
0.03125 0.09375 0
0.03125 0.0625 0
0.0625 0.0625 0
0.03125 0.09375 0
0.0625 0.09375 0
0 0.09375 0
0.03125 0.09375 0
0 0.125 0
0.03125 0.125 0
0.03125 0.09375 0
0.0625 0.09375 0
0.03125 0.125 0
0.0625 0.125 0
0.0625 0.0625 0
0.09375 0.0625 0
0.0625 0.09375 0
0.09375 0.09375 0
0.09375 0.0625 0
0.125 0.0625 0
0.09375 0.09375 0
0.125 0.09375 0
0.0625 0.09375 0
0.09375 0.09375 0
0.0625 0.125 0
0.09375 0.125 0
0.09375 0.09375 0
0.125 0.09375 0
0.09375 0.125 0
0.125 0.125 0
0.125 0 0
0.15625 0 0
0.125 0.03125 0
0.15625 0.03125 0
0.15625 0 0
0.1875 0 0
0.15625 0.03125 0
0.1875 0.03125 0
0.125 0.03125 0
0.15625 0.03125 0
0.125 0.0625 0
0.15625 0.0625 0
0.15625 0.03125 0
0.1875 0.03125 0
0.15625 0.0625 0
0.1875 0.0625 0
0.1875 0 0
0.21875 0 0
0.1875 0.03125 0
0.21875 0.03125 0
0.21875 0 0
0.25 0 0
0.21875 0.03125 0
0.25 0.03125 0
0.1875 0.03125 0
0.21875 0.03125 0
0.1875 0.0625 0
0.21875 0.0625 0
0.21875 0.03125 0
0.25 0.03125 0
0.21875 0.0625 0
0.25 0.0625 0
0.125 0.0625 0
0.15625 0.0625 0
0.125 0.09375 0
0.15625 0.09375 0
0.15625 0.0625 0
0.1875 0.0625 0
0.15625 0.09375 0
0.1875 0.09375 0
0.125 0.09375 0
0.15625 0.09375 0
0.125 0.125 0
0.15625 0.125 0
0.15625 0.09375 0
0.1875 0.09375 0
0.15625 0.125 0
0.1875 0.125 0
0.1875 0.0625 0
0.21875 0.0625 0
0.1875 0.09375 0
0.21875 0.09375 0
0.21875 0.0625 0
0.25 0.0625 0
0.21875 0.09375 0
0.25 0.09375 0
0.1875 0.09375 0
0.21875 0.09375 0
0.1875 0.125 0
0.21875 0.125 0
0.21875 0.09375 0
0.25 0.09375 0
0.21875 0.125 0
0.25 0.125 0
0 0.125 0
0.03125 0.125 0
0 0.15625 0
0.03125 0.15625 0
0.03125 0.125 0
0.0625 0.125 0
0.03125 0.15625 0
0.0625 0.15625 0
0 0.15625 0
0.03125 0.15625 0
0 0.1875 0
0.03125 0.1875 0
0.03125 0.15625 0
0.0625 0.15625 0
0.03125 0.1875 0
0.0625 0.1875 0
0.0625 0.125 0
0.09375 0.125 0
0.0625 0.15625 0
0.09375 0.15625 0
0.09375 0.125 0
0.125 0.125 0
0.09375 0.15625 0
0.125 0.15625 0
0.0625 0.15625 0
0.09375 0.15625 0
0.0625 0.1875 0
0.09375 0.1875 0
0.09375 0.15625 0
0.125 0.15625 0
0.09375 0.1875 0
0.125 0.1875 0
0 0.1875 0
0.03125 0.1875 0
0 0.21875 0
0.03125 0.21875 0
0.03125 0.1875 0
0.0625 0.1875 0
0.03125 0.21875 0
0.0625 0.21875 0
0 0.21875 0
0.03125 0.21875 0
0 0.25 0
0.03125 0.25 0
0.03125 0.21875 0
0.0625 0.21875 0
0.03125 0.25 0
0.0625 0.25 0
0.0625 0.1875 0
0.09375 0.1875 0
0.0625 0.21875 0
0.09375 0.21875 0
0.09375 0.1875 0
0.125 0.1875 0
0.09375 0.21875 0
0.125 0.21875 0
0.0625 0.21875 0
0.09375 0.21875 0
0.0625 0.25 0
0.09375 0.25 0
0.09375 0.21875 0
0.125 0.21875 0
0.09375 0.25 0
0.125 0.25 0
0.125 0.125 0
0.15625 0.125 0
0.125 0.15625 0
0.15625 0.15625 0
0.15625 0.125 0
0.1875 0.125 0
0.15625 0.15625 0
0.1875 0.15625 0
0.125 0.15625 0
0.15625 0.15625 0
0.125 0.1875 0
0.15625 0.1875 0
0.15625 0.15625 0
0.1875 0.15625 0
0.15625 0.1875 0
0.1875 0.1875 0
0.1875 0.125 0
0.21875 0.125 0
0.1875 0.15625 0
0.21875 0.15625 0
0.21875 0.125 0
0.25 0.125 0
0.21875 0.15625 0
0.25 0.15625 0
0.1875 0.15625 0
0.21875 0.15625 0
0.1875 0.1875 0
0.21875 0.1875 0
0.21875 0.15625 0
0.25 0.15625 0
0.21875 0.1875 0
0.25 0.1875 0
0.125 0.1875 0
0.15625 0.1875 0
0.125 0.21875 0
0.15625 0.21875 0
0.15625 0.1875 0
0.1875 0.1875 0
0.15625 0.21875 0
0.1875 0.21875 0
0.125 0.21875 0
0.15625 0.21875 0
0.125 0.25 0
0.15625 0.25 0
0.15625 0.21875 0
0.1875 0.21875 0
0.15625 0.25 0
0.1875 0.25 0
0.1875 0.1875 0
0.21875 0.1875 0
0.1875 0.21875 0
0.21875 0.21875 0
0.21875 0.1875 0
0.25 0.1875 0
0.21875 0.21875 0
0.25 0.21875 0
0.1875 0.21875 0
0.21875 0.21875 0
0.1875 0.25 0
0.21875 0.25 0
0.21875 0.21875 0
0.25 0.21875 0
0.21875 0.25 0
0.25 0.25 0
0.25 0 0
0.28125 0 0
0.25 0.03125 0
0.28125 0.03125 0
0.28125 0 0
0.3125 0 0
0.28125 0.03125 0
0.3125 0.03125 0
0.25 0.03125 0
0.28125 0.03125 0
0.25 0.0625 0
0.28125 0.0625 0
0.28125 0.03125 0
0.3125 0.03125 0
0.28125 0.0625 0
0.3125 0.0625 0
0.3125 0 0
0.34375 0 0
0.3125 0.03125 0
0.34375 0.03125 0
0.34375 0 0
0.375 0 0
0.34375 0.03125 0
0.375 0.03125 0
0.3125 0.03125 0
0.34375 0.03125 0
0.3125 0.0625 0
0.34375 0.0625 0
0.34375 0.03125 0
0.375 0.03125 0
0.34375 0.0625 0
0.375 0.0625 0
0.25 0.0625 0
0.28125 0.0625 0
0.25 0.09375 0
0.28125 0.09375 0
0.28125 0.0625 0
0.3125 0.0625 0
0.28125 0.09375 0
0.3125 0.09375 0
0.25 0.09375 0
0.28125 0.09375 0
0.25 0.125 0
0.28125 0.125 0
0.28125 0.09375 0
0.3125 0.09375 0
0.28125 0.125 0
0.3125 0.125 0
0.3125 0.0625 0
0.34375 0.0625 0
0.3125 0.09375 0
0.34375 0.09375 0
0.34375 0.0625 0
0.375 0.0625 0
0.34375 0.09375 0
0.375 0.09375 0
0.3125 0.09375 0
0.34375 0.09375 0
0.3125 0.125 0
0.34375 0.125 0
0.34375 0.09375 0
0.375 0.09375 0
0.34375 0.125 0
0.375 0.125 0
0.375 0 0
0.40625 0 0
0.375 0.03125 0
0.40625 0.03125 0
0.40625 0 0
0.4375 0 0
0.40625 0.03125 0
0.4375 0.03125 0
0.375 0.03125 0
0.40625 0.03125 0
0.375 0.0625 0
0.40625 0.0625 0
0.40625 0.03125 0
0.4375 0.03125 0
0.40625 0.0625 0
0.4375 0.0625 0
0.4375 0 0
0.46875 0 0
0.4375 0.03125 0
0.46875 0.03125 0
0.46875 0 0
0.5 0 0
0.46875 0.03125 0
0.5 0.03125 0
0.4375 0.03125 0
0.46875 0.03125 0
0.4375 0.0625 0
0.46875 0.0625 0
0.46875 0.03125 0
0.5 0.03125 0
0.46875 0.0625 0
0.5 0.0625 0
0.375 0.0625 0
0.40625 0.0625 0
0.375 0.09375 0
0.40625 0.09375 0
0.40625 0.0625 0
0.4375 0.0625 0
0.40625 0.09375 0
0.4375 0.09375 0
0.375 0.09375 0
0.40625 0.09375 0
0.375 0.125 0
0.40625 0.125 0
0.40625 0.09375 0
0.4375 0.09375 0
0.40625 0.125 0
0.4375 0.125 0
0.4375 0.0625 0
0.46875 0.0625 0
0.4375 0.09375 0
0.46875 0.09375 0
0.46875 0.0625 0
0.5 0.0625 0
0.46875 0.09375 0
0.5 0.09375 0
0.4375 0.09375 0
0.46875 0.09375 0
0.4375 0.125 0
0.46875 0.125 0
0.46875 0.09375 0
0.5 0.09375 0
0.46875 0.125 0
0.5 0.125 0
0.25 0.125 0
0.28125 0.125 0
0.25 0.15625 0
0.28125 0.15625 0
0.28125 0.125 0
0.3125 0.125 0
0.28125 0.15625 0
0.3125 0.15625 0
0.25 0.15625 0
0.28125 0.15625 0
0.25 0.1875 0
0.28125 0.1875 0
0.28125 0.15625 0
0.3125 0.15625 0
0.28125 0.1875 0
0.3125 0.1875 0
0.3125 0.125 0
0.34375 0.125 0
0.3125 0.15625 0
0.34375 0.15625 0
0.34375 0.125 0
0.375 0.125 0
0.34375 0.15625 0
0.375 0.15625 0
0.3125 0.15625 0
0.34375 0.15625 0
0.3125 0.1875 0
0.34375 0.1875 0
0.34375 0.15625 0
0.375 0.15625 0
0.34375 0.1875 0
0.375 0.1875 0
0.25 0.1875 0
0.28125 0.1875 0
0.25 0.21875 0
0.28125 0.21875 0
0.28125 0.1875 0
0.3125 0.1875 0
0.28125 0.21875 0
0.3125 0.21875 0
0.25 0.21875 0
0.28125 0.21875 0
0.25 0.25 0
0.28125 0.25 0
0.28125 0.21875 0
0.3125 0.21875 0
0.28125 0.25 0
0.3125 0.25 0
0.3125 0.1875 0
0.34375 0.1875 0
0.3125 0.21875 0
0.34375 0.21875 0
0.34375 0.1875 0
0.375 0.1875 0
0.34375 0.21875 0
0.375 0.21875 0
0.3125 0.21875 0
0.34375 0.21875 0
0.3125 0.25 0
0.34375 0.25 0
0.34375 0.21875 0
0.375 0.21875 0
0.34375 0.25 0
0.375 0.25 0
0.375 0.125 0
0.40625 0.125 0
0.375 0.15625 0
0.40625 0.15625 0
0.40625 0.125 0
0.4375 0.125 0
0.40625 0.15625 0
0.4375 0.15625 0
0.375 0.15625 0
0.40625 0.15625 0
0.375 0.1875 0
0.40625 0.1875 0
0.40625 0.15625 0
0.4375 0.15625 0
0.40625 0.1875 0
0.4375 0.1875 0
0.4375 0.125 0
0.46875 0.125 0
0.4375 0.15625 0
0.46875 0.15625 0
0.46875 0.125 0
0.5 0.125 0
0.46875 0.15625 0
0.5 0.15625 0
0.4375 0.15625 0
0.46875 0.15625 0
0.4375 0.1875 0
0.46875 0.1875 0
0.46875 0.15625 0
0.5 0.15625 0
0.46875 0.1875 0
0.5 0.1875 0
0.375 0.1875 0
0.40625 0.1875 0
0.375 0.21875 0
0.40625 0.21875 0
0.40625 0.1875 0
0.4375 0.1875 0
0.40625 0.21875 0
0.4375 0.21875 0
0.375 0.21875 0
0.40625 0.21875 0
0.375 0.25 0
0.40625 0.25 0
0.40625 0.21875 0
0.4375 0.21875 0
0.40625 0.25 0
0.4375 0.25 0
0.4375 0.1875 0
0.46875 0.1875 0
0.4375 0.21875 0
0.46875 0.21875 0
0.46875 0.1875 0
0.5 0.1875 0
0.46875 0.21875 0
0.5 0.21875 0
0.4375 0.21875 0
0.46875 0.21875 0
0.4375 0.25 0
0.46875 0.25 0
0.46875 0.21875 0
0.5 0.21875 0
0.46875 0.25 0
0.5 0.25 0
0 0.25 0
0.03125 0.25 0
0 0.28125 0
0.03125 0.28125 0
0.03125 0.25 0
0.0625 0.25 0
0.03125 0.28125 0
0.0625 0.28125 0
0 0.28125 0
0.03125 0.28125 0
0 0.3125 0
0.03125 0.3125 0
0.03125 0.28125 0
0.0625 0.28125 0
0.03125 0.3125 0
0.0625 0.3125 0
0.0625 0.25 0
0.09375 0.25 0
0.0625 0.28125 0
0.09375 0.28125 0
0.09375 0.25 0
0.125 0.25 0
0.09375 0.28125 0
0.125 0.28125 0
0.0625 0.28125 0
0.09375 0.28125 0
0.0625 0.3125 0
0.09375 0.3125 0
0.09375 0.28125 0
0.125 0.28125 0
0.09375 0.3125 0
0.125 0.3125 0
0 0.3125 0
0.03125 0.3125 0
0 0.34375 0
0.03125 0.34375 0
0.03125 0.3125 0
0.0625 0.3125 0
0.03125 0.34375 0
0.0625 0.34375 0
0 0.34375 0
0.03125 0.34375 0
0 0.375 0
0.03125 0.375 0
0.03125 0.34375 0
0.0625 0.34375 0
0.03125 0.375 0
0.0625 0.375 0
0.0625 0.3125 0
0.09375 0.3125 0
0.0625 0.34375 0
0.09375 0.34375 0
0.09375 0.3125 0
0.125 0.3125 0
0.09375 0.34375 0
0.125 0.34375 0
0.0625 0.34375 0
0.09375 0.34375 0
0.0625 0.375 0
0.09375 0.375 0
0.09375 0.34375 0
0.125 0.34375 0
0.09375 0.375 0
0.125 0.375 0
0.125 0.25 0
0.15625 0.25 0
0.125 0.28125 0
0.15625 0.28125 0
0.15625 0.25 0
0.1875 0.25 0
0.15625 0.28125 0
0.1875 0.28125 0
0.125 0.28125 0
0.15625 0.28125 0
0.125 0.3125 0
0.15625 0.3125 0
0.15625 0.28125 0
0.1875 0.28125 0
0.15625 0.3125 0
0.1875 0.3125 0
0.1875 0.25 0
0.21875 0.25 0
0.1875 0.28125 0
0.21875 0.28125 0
0.21875 0.25 0
0.25 0.25 0
0.21875 0.28125 0
0.25 0.28125 0
0.1875 0.28125 0
0.21875 0.28125 0
0.1875 0.3125 0
0.21875 0.3125 0
0.21875 0.28125 0
0.25 0.28125 0
0.21875 0.3125 0
0.25 0.3125 0
0.125 0.3125 0
0.15625 0.3125 0
0.125 0.34375 0
0.15625 0.34375 0
0.15625 0.3125 0
0.1875 0.3125 0
0.15625 0.34375 0
0.1875 0.34375 0
0.125 0.34375 0
[...]
POINT_DATA 4096
SCALARS u_x double 1
LOOKUP_TABLE default
2.29127e-05 1.51559e-05 -1.89167e-05 -5.37681e-05 1.51559e-05 2.25051e-05 -5.37681e-05 -0.000388971 -1.89167e-05 -5.37681e-05 -0.00014157 -0.000220948 -5.37681e-05 -0.000388971 -0.000220948 -0.000975994 2.25051e-05 1.93582e-05 -0.000388971 -0.00100935 1.93582e-05 9.99145e-06 -0.00100935 -0.00186976 -0.000388971 -0.00100935 -0.000975994 -0.00216148 -0.00100935 -0.00186976 -0.00216148 -0.00371697 -0.00014157 -0.000220948 -0.000273295 -0.000377645 -0.000220948 -0.000975994 -0.000377645 -0.00153342 -0.000273295 -0.000377645 -0.000366916 -0.000503837 -0.000377645 -0.00153342 -0.000503837 -0.00199539 -0.000975994 -0.00216148 -0.00153342 -0.00322169 -0.00216148 -0.00371697 -0.00322169 -0.00535777 -0.00153342 -0.00322169 -0.00199539 -0.00411277 -0.00322169 -0.00535777 -0.00411277 -0.00673583 9.99145e-06 -1.98463e-06 -0.00186976 -0.00288697 -1.98463e-06 -1.46301e-05 -0.00288697 -0.00398628 -0.00186976 -0.00288697 -0.00371697 -0.00551808 -0.00288697 -0.00398628 -0.00551808 -0.00745169 -1.46301e-05 -2.70283e-05 -0.00398628 -0.00510738 -2.70283e-05 -3.87566e-05 -0.00510738 -0.0062049 -0.00398628 -0.00510738 -0.00745169 -0.00942072 -0.00510738 -0.0062049 -0.00942072 -0.0113487 -0.00371697 -0.00551808 -0.00535777 -0.00778431 -0.00551808 -0.00745169 -0.00778431 -0.0103659 -0.00535777 -0.00778431 -0.00673583 -0.00967433 -0.00778431 -0.0103659 -0.00967433 -0.0127746 -0.00745169 -0.00942072 -0.0103659 -0.012984 -0.00942072 -0.0113487 -0.012984 -0.0155427 -0.0103659 -0.012984 -0.0127746 -0.0159034 -0.012984 -0.0155427 -0.0159034 -0.0189528 -0.000366916 -0.000503837 -0.000398975 -0.000606061 -0.000503837 -0.00199539 -0.000606061 -0.00236324 -0.000398975 -0.000606061 -0.000357876 -0.000695789 -0.000606061 -0.00236324 -0.000695789 -0.0026613 -0.00199539 -0.00411277 -0.00236324 -0.00484081 -0.00411277 -0.00673583 -0.00484081 -0.00787466 -0.00236324 -0.00484081 -0.0026613 -0.00544725 -0.00484081 -0.00787466 -0.00544725 -0.00883649 -0.000357876 -0.000695789 -0.000237408 -0.000783651 -0.000695789 -0.0026613 -0.000783651 -0.00291791 -0.000237408 -0.000783651 -3.34651e-05 -0.000878432 -0.000783651 -0.00291791 -0.000878432 -0.00315881 -0.0026613 -0.00544725 -0.00291791 -0.00598254 -0.00544725 -0.00883649 -0.00598254 -0.00969502 -0.00291791 -0.00598254 -0.00315881 -0.00649432 -0.00598254 -0.00969502 -0.00649432 -0.0105206 -0.00673583 -0.00967433 -0.00787466 -0.0112435 -0.00967433 -0.0127746 -0.0112435 -0.0147748 -0.00787466 -0.0112435 -0.00883649 -0.012581 -0.0112435 -0.0147748 -0.012581 -0.0164887 -0.0127746 -0.0159034 -0.0147748 -0.0183233 -0.0159034 -0.0189528 -0.0183233 -0.021772 -0.0147748 -0.0183233 -0.0164887 -0.0204022 -0.0183233 -0.021772 -0.0204022 -0.0241969 -0.00883649 -0.012581 -0.00969502 -0.0137859 -0.012581 -0.0164887 -0.0137859 -0.0180427 -0.00969502 -0.0137859 -0.0105206 -0.0149516 -0.0137859 -0.0180427 -0.0149516 -0.0195537 -0.0164887 -0.0204022 -0.0180427 -0.0222959 -0.0204022 -0.0241969 -0.0222959 -0.026413 -0.0180427 -0.0222959 -0.0195537 -0.0241445 -0.0222959 -0.026413 -0.0241445 -0.0285837 -3.87566e-05 -4.96419e-05 -0.0062049 -0.00724555 -4.96419e-05 -5.96159e-05 -0.00724555 -0.00820486 -0.0062049 -0.00724555 -0.0113487 -0.0131773 -0.00724555 -0.00820486 -0.0131773 -0.0148624 -5.96159e-05 -6.86337e-05 -0.00820486 -0.00906416 -6.86337e-05 -7.66343e-05 -0.00906416 -0.00980847 -0.00820486 -0.00906416 -0.0148624 -0.01637 -0.00906416 -0.00980847 -0.01637 -0.0176728 -0.0113487 -0.0131773 -0.0155427 -0.0179671 -0.0131773 -0.0148624 -0.0179671 -0.0201992 -0.0155427 -0.0179671 -0.0189528 -0.0218374 -0.0179671 -0.0201992 -0.0218374 -0.02449 -0.0148624 -0.01637 -0.0201992 -0.0221936 -0.01637 -0.0176728 -0.0221936 -0.0239138 -0.0201992 -0.0221936 -0.02449 -0.0268578 -0.0221936 -0.0239138 -0.0268578 -0.0288977 -7.66343e-05 -8.35297e-05 -0.00980847 -0.010425 -8.35297e-05 -8.92023e-05 -0.010425 -0.0109026 -0.00980847 -0.010425 -0.0176728 -0.0187479 -0.010425 -0.0109026 -0.0187479 -0.0195757 -8.92023e-05 -9.35071e-05 -0.0109026 -0.0112311 -9.35071e-05 -9.62871e-05 -0.0112311 -0.0114017 -0.0109026 -0.0112311 -0.0195757 -0.0201389 -0.0112311 -0.0114017 -0.0201389 -0.0204229 -0.0176728 -0.0187479 -0.0239138 -0.0253295 -0.0187479 -0.0195757 -0.0253295 -0.0264148 -0.0239138 -0.0253295 -0.0288977 -0.0305741 -0.0253295 -0.0264148 -0.0305741 -0.0318567 -0.0195757 -0.0201389 -0.0264148 -0.0271475 -0.0201389 -0.0204229 -0.0271475 -0.0275091 -0.0264148 -0.0271475 -0.0318567 -0.0327197 -0.0271475 -0.0275091 -0.0327197 -0.0331416 -0.0189528 -0.0218374 -0.021772 -0.0250287 -0.0218374 -0.02449 -0.0250287 -0.0280204 -0.021772 -0.0250287 -0.0241969 -0.0277752 -0.0250287 -0.0280204 -0.0277752 -0.0310605 -0.02449 -0.0268578 -0.0280204 -0.0306894 -0.0268578 -0.0288977 -0.0306894 -0.0329884 -0.0280204 -0.0306894 -0.0310605 -0.0339919 -0.0306894 -0.0329884 -0.0339919 -0.0365194 -0.0241969 -0.0277752 -0.026413 -0.0302921 -0.0277752 -0.0310605 -0.0302921 -0.0338536 -0.026413 -0.0302921 -0.0285837 -0.0327649 -0.0302921 -0.0338536 -0.0327649 -0.0366062 -0.0310605 -0.0339919 -0.0338536 -0.0370345 -0.0339919 -0.0365194 -0.0370345 -0.0397832 -0.0338536 -0.0370345 -0.0366062 -0.0400432 -0.0370345 -0.0397832 -0.0400432 -0.0430231 -0.0288977 -0.0305741 -0.0329884 -0.0348782 -0.0305741 -0.0318567 -0.0348782 -0.0363251 -0.0329884 -0.0348782 -0.0365194 -0.0386012 -0.0348782 -0.0363251 -0.0386012 -0.0402009 -0.0318567 -0.0327197 -0.0363251 -0.0373004 -0.0327197 -0.0331416 -0.0373004 -0.0377799 -0.0363251 -0.0373004 -0.0402009 -0.0412873 -0.0373004 -0.0377799 -0.0412873 -0.0418332 -0.0365194 -0.0386012 -0.0397832 -0.0420558 -0.0386012 -0.0402009 -0.0420558 -0.0438139 -0.0397832 -0.0420558 -0.0430231 -0.0455006 -0.0420558 -0.0438139 -0.0455006 -0.0474352 -0.0402009 -0.0412873 -0.0438139 -0.0450232 -0.0412873 -0.0418332 -0.0450232 -0.0456535 -0.0438139 -0.0450232 -0.0474352 -0.0487899 -0.0450232 -0.0456535 -0.0487899 -0.0495303 -3.34651e-05 -0.000878432 0.000257776 -0.000987091 -0.000878432 -0.00315881 -0.000987091 -0.00340515 0.000257776 -0.000987091 0.000640857 -0.00111514 -0.000987091 -0.00340515 -0.00111514 -0.0036735 -0.00315881 -0.00649432 -0.00340515 -0.00702293 -0.00649432 -0.0105206 -0.00702293 -0.0113737 -0.00340515 -0.00702293 -0.0036735 -0.00760084 -0.00702293 -0.0113737 -0.00760084 -0.0123036 0.000640857 -0.00111514 0.00112159 -0.00126715 -0.00111514 -0.0036735 -0.00126715 -0.00397693 0.00112159 -0.00126715 0.00170742 -0.00144728 -0.00126715 -0.00397693 -0.00144728 -0.00432639 -0.0036735 -0.00760084 -0.00397693 -0.00825411 -0.00760084 -0.0123036 -0.00825411 -0.0133502 -0.00397693 -0.00825411 -0.00432639 -0.0090048 -0.00825411 -0.0133502 -0.0090048 -0.0145468 -0.0105206 -0.0149516 -0.0113737 -0.0161586 -0.0149516 -0.0195537 -0.0161586 -0.0211211 -0.0113737 -0.0161586 -0.0123036 -0.0174724 -0.0161586 -0.0211211 -0.0174724 -0.0228259 -0.0195537 -0.0241445 -0.0211211 -0.0260658 -0.0241445 -0.0285837 -0.0260658 -0.0308441 -0.0211211 -0.0260658 -0.0228259 -0.0281546 -0.0260658 -0.0308441 -0.0281546 -0.0333013 -0.0123036 -0.0174724 -0.0133502 -0.0189461 -0.0174724 -0.0228259 -0.0189461 -0.0247328 -0.0133502 -0.0189461 -0.0145468 -0.0206238 -0.0189461 -0.0247328 -0.0206238 -0.0268949 -0.0228259 -0.0281546 -0.0247328 -0.0304857 -0.0281546 -0.0333013 -0.0304857 -0.0360386 -0.0247328 -0.0304857 -0.0268949 -0.0331191 -0.0304857 -0.0360386 -0.0331191 -0.0391209 0.00170742 -0.00144728 0.00240771 -0.0016598 -0.00144728 -0.00432639 -0.0016598 -0.00473224 0.00240771 -0.0016598 0.00323382 -0.0019096 -0.0016598 -0.00473224 -0.0019096 -0.00520584 -0.00432639 -0.0090048 -0.00473224 -0.00987371 -0.0090048 -0.0145468 -0.00987371 -0.0159247 -0.00473224 -0.00987371 -0.00520584 -0.0108832 -0.00987371 -0.0159247 -0.0108832 -0.0175166 0.00323382 -0.0019096 0.00419945 -0.00220281 -0.0019096 -0.00520584 -0.00220281 -0.00576122 0.00419945 -0.00220281 0.00532114 -0.00254741 -0.00220281 -0.00576122 -0.00254741 -0.0064168 -0.00520584 -0.0108832 -0.00576122 -0.0120603 -0.0108832 -0.0175166 -0.0120603 -0.0193605 -0.00576122 -0.0120603 -0.0064168 -0.0134393 -0.0120603 -0.0193605 -0.0134393 -0.0215038 -0.0145468 -0.0206238 -0.0159247 -0.0225458 -0.0206238 -0.0268949 -0.0225458 -0.0293591 -0.0159247 -0.0225458 -0.0175166 -0.0247528 -0.0225458 -0.0293591 -0.0247528 -0.0321715 -0.0268949 -0.0331191 -0.0293591 -0.0361058 -0.0331191 -0.0391209 -0.0361058 -0.0426011 -0.0293591 -0.0361058 -0.0321715 -0.039494 -0.0361058 -0.0426011 -0.039494 -0.0465265 -0.0175166 -0.0247528 -0.0193605 -0.0272911 -0.0247528 -0.0321715 -0.0272911 -0.0353819 -0.0193605 -0.0272911 -0.0215038 -0.0302159 -0.0272911 -0.0353819 -0.0302159 -0.0390474 -0.0321715 -0.039494 -0.0353819 -0.0433328 -0.039494 -0.0465265 -0.0433328 -0.0509417 -0.0353819 -0.0433328 -0.0390474 -0.0476754 -0.0433328 -0.0509417 -0.0476754 -0.0558912 -0.0285837 -0.0327649 -0.0308441 -0.035345 -0.0327649 -0.0366062 -0.035345 -0.0394848 -0.0308441 -0.035345 -0.0333013 -0.0381508 -0.035345 -0.0394848 -0.0381508 -0.0426177 -0.0366062 -0.0400432 -0.0394848 -0.0431981 -0.0400432 -0.0430231 -0.0431981 -0.0464317 -0.0394848 -0.0431981 -0.0426177 -0.0466366 -0.0431981 -0.0464317 -0.0466366 -0.0501544 -0.0333013 -0.0381508 -0.0360386 -0.0412723 -0.0381508 -0.0426177 -0.0412723 -0.0461008 -0.0360386 -0.0412723 -0.0391209 -0.0447779 -0.0412723 -0.0461008 -0.0447779 -0.0500045 -0.0426177 -0.0466366 -0.0461008 -0.0504595 -0.0466366 -0.0501544 -0.0504595 -0.0542968 -0.0461008 -0.0504595 -0.0500045 -0.054739 -0.0504595 -0.0542968 -0.054739 -0.0589326 -0.0430231 -0.0455006 -0.0464317 -0.0491391 -0.0455006 -0.0474352 -0.0491391 -0.0512783 -0.0464317 -0.0491391 -0.0501544 -0.0531245 -0.0491391 -0.0512783 -0.0531245 -0.0555033 -0.0474352 -0.0487899 -0.0512783 -0.0528089 -0.0487899 -0.0495303 -0.0528089 -0.0536922 -0.0512783 -0.0528089 -0.0555033 -0.0572476 -0.0528089 -0.0536922 -0.0572476 -0.0583136 -0.0501544 -0.0531245 -0.0542968 -0.057567 -0.0531245 -0.0555033 -0.057567 -0.0602259 -0.0542968 -0.057567 -0.0589326 -0.0625424 -0.057567 -0.0602259 -0.0625424 -0.0655255 -0.0555033 -0.0572476 -0.0602259 -0.062228 -0.0572476 -0.0583136 -0.062228 -0.063524 -0.0602259 -0.062228 -0.0655255 -0.0678348 -0.062228 -0.063524 -0.0678348 -0.0694164 -0.0391209 -0.0447779 -0.0426011 -0.0487206 -0.0447779 -0.0500045 -0.0487206 -0.0543809 -0.0426011 -0.0487206 -0.0465265 -0.0531441 -0.0487206 -0.0543809 -0.0531441 -0.0592686 -0.0500045 -0.054739 -0.0543809 -0.0595251 -0.054739 -0.0589326 -0.0595251 -0.0641103 -0.0543809 -0.0595251 -0.0592686 -0.0648511 -0.0595251 -0.0641103 -0.0648511 -0.0698578 -0.0465265 -0.0531441 -0.0509417 -0.058086 -0.0531441 -0.0592686 -0.058086 -0.0646961 -0.0509417 -0.058086 -0.0558912 -0.0635782 -0.058086 -0.0646961 -0.0635782 -0.07068 -0.0592686 -0.0648511 -0.0646961 -0.0707351 -0.0648511 -0.0698578 -0.0707351 -0.076183 -0.0646961 -0.0707351 -0.07068 -0.077177 -0.0707351 -0.076183 -0.077177 -0.0830681 -0.0589326 -0.0625424 -0.0641103 -0.0680988 -0.0625424 -0.0655255 -0.0680988 -0.0714514 -0.0641103 -0.0680988 -0.0698578 -0.07426 -0.0680988 -0.0714514 -0.07426 -0.0780256 -0.0655255 -0.0678348 -0.0714514 -0.0741217 -0.0678348 -0.0694164 -0.0741217 -0.0760526 -0.0714514 -0.0741217 -0.0780256 -0.0811125 -0.0741217 -0.0760526 -0.0811125 -0.0834633 -0.0698578 -0.07426 -0.076183 -0.0810244 -0.07426 -0.0780256 -0.0810244 -0.0852396 -0.076183 -0.0810244 -0.0830681 -0.0883577 -0.0810244 -0.0852396 -0.0883577 -0.0930443 -0.0780256 -0.0811125 -0.0852396 -0.0887959 -0.0811125 -0.0834633 -0.0887959 -0.0916402 -0.0852396 -0.0887959 -0.0930443 -0.0971112 -0.0887959 -0.0916402 -0.0971112 -0.100517 -9.62871e-05 -9.73895e-05 -0.0114017 -0.0114071 -9.73895e-05 -9.66724e-05 -0.0114071 -0.0112419 -0.0114017 -0.0114071 -0.0204229 -0.0204161 -0.0114071 -0.0112419 -0.0204161 -0.0201102 -9.66724e-05 -9.40088e-05 -0.0112419 -0.0109032 -9.40088e-05 -8.92961e-05 -0.0109032 -0.0103912 -0.0112419 -0.0109032 -0.0201102 -0.0195015 -0.0109032 -0.0103912 -0.0195015 -0.0185917 -0.0204229 -0.0204161 -0.0275091 -0.0274851 -0.0204161 -0.0201102 -0.0274851 -0.0270657 -0.0275091 -0.0274851 -0.0331416 -0.0331056 -0.0274851 -0.0270657 -0.0331056 -0.0326005 -0.0201102 -0.0195015 -0.0270657 -0.0262469 -0.0195015 -0.0185917 -0.0262469 -0.0250322 -0.0270657 -0.0262469 -0.0326005 -0.031622 -0.0262469 -0.0250322 -0.031622 -0.0301744 -8.92961e-05 -8.24735e-05 -0.0103912 -0.00971003 -8.24735e-05 -7.35397e-05 -0.00971003 -0.00886902 -0.0103912 -0.00971003 -0.0185917 -0.0173895 -0.00971003 -0.00886902 -0.0173895 -0.0159123 -7.35397e-05 -6.25717e-05 -0.00886902 -0.00788379 -6.25717e-05 -4.97531e-05 -0.00788379 -0.00677809 -0.00886902 -0.00788379 -0.0159123 -0.0141887 -0.00788379 -0.00677809 -0.0141887 -0.0122607 -0.0185917 -0.0173895 -0.0250322 -0.023434 -0.0173895 -0.0159123 -0.023434 -0.0214763 -0.0250322 -0.023434 -0.0301744 -0.0282727 -0.023434 -0.0214763 -0.0282727 -0.025945 -0.0159123 -0.0141887 -0.0214763 -0.019197 -0.0141887 -0.0122607 -0.019197 -0.0166515 -0.0214763 -0.019197 -0.025945 -0.023236 -0.019197 -0.0166515 -0.023236 -0.0202104 -0.0331416 -0.0331056 -0.0377799 -0.0377445 -0.0331056 -0.0326005 -0.0377445 -0.0371811 -0.0377799 -0.0377445 -0.0418332 -0.0418167 -0.0377445 -0.0371811 -0.0418167 -0.0412218 -0.0326005 -0.031622 -0.0371811 -0.0360842 -0.031622 -0.0301744 -0.0360842 -0.0344574 -0.0371811 -0.0360842 -0.0412218 -0.0400401 -0.0360842 -0.0344574 -0.0400401 -0.0382732 -0.0418332 -0.0418167 -0.0456535 -0.045679 -0.0418167 -0.0412218 -0.045679 -0.0450794 -0.0456535 -0.045679 -0.0495303 -0.0496257 -0.045679 -0.0450794 -0.0496257 -0.0490497 -0.0412218 -0.0400401 -0.0450794 -0.0438417 -0.0400401 -0.0382732 -0.0438417 -0.0419634 -0.0450794 -0.0438417 -0.0490497 -0.047783 -0.0438417 -0.0419634 -0.047783 -0.0458162 -0.0301744 -0.0282727 -0.0344574 -0.0323165 -0.0282727 -0.025945 -0.0323165 -0.029692 -0.0344574 -0.0323165 -0.0382732 -0.0359357 -0.0323165 -0.029692 -0.0359357 -0.0330586 -0.025945 -0.023236 -0.029692 -0.0266331 -0.023236 -0.0202104 -0.0266331 -0.0232107 -0.029692 -0.0266331 -0.0330586 -0.0296934 -0.0266331 -0.0232107 -0.0296934 -0.0259164 -0.0382732 -0.0359357 -0.0419634 -0.0394559 -0.0359357 -0.0330586 -0.0394559 -0.0363484 -0.0419634 -0.0394559 -0.0458162 -0.0431548 -0.0394559 -0.0363484 -0.0431548 -0.0398245 -0.0330586 -0.0296934 -0.0363484 -0.0326935 -0.0296934 -0.0259164 -0.0326935 -0.0285721 -0.0363484 -0.0326935 -0.0398245 -0.035877 -0.0326935 -0.0285721 -0.035877 -0.0313972 -4.97531e-05 -3.53981e-05 -0.00677809 -0.00558591 -3.53981e-05 -2.01023e-05 -0.00558591 -0.00435303 -0.00677809 -0.00558591 -0.0122607 -0.010187 -0.00558591 -0.00435303 -0.010187 -0.0080454 -2.01023e-05 -4.43015e-06 -0.00435303 -0.00314133 -4.43015e-06 8.86534e-06 -0.00314133 -0.00201574 -0.00435303 -0.00314133 -0.0080454 -0.00593648 -0.00314133 -0.00201574 -0.00593648 -0.0039678 -0.0122607 -0.010187 -0.0166515 -0.0139157 -0.010187 -0.0080454 -0.0139157 -0.011088 -0.0166515 -0.0139157 -0.0202104 -0.0169558 -0.0139157 -0.011088 -0.0169558 -0.0135851 -0.0080454 -0.00593648 -0.011088 -0.00829328 -0.00593648 -0.0039678 -0.00829328 -0.00566513 -0.011088 -0.00829328 -0.0135851 -0.0102397 -0.00829328 -0.00566513 -0.0102397 -0.00707221 8.86534e-06 1.95773e-05 -0.00201574 -0.00111355 1.95773e-05 5.46777e-05 -0.00111355 -0.000221293 -0.00201574 -0.00111355 -0.0039678 -0.00232913 -0.00111355 -0.000221293 -0.00232913 -0.000815315 5.46777e-05 -1.16581e-05 -0.000221293 -0.000963136 -1.16581e-05 0.00776189 -0.000963136 0.00688531 -0.000221293 -0.000963136 -0.000815315 -0.0011804 -0.000963136 0.00688531 -0.0011804 0.00716303 -0.0039678 -0.00232913 -0.00566513 -0.00342027 -0.00232913 -0.000815315 -0.00342027 -0.00138305 -0.00566513 -0.00342027 -0.00707221 -0.00432107 -0.00342027 -0.00138305 -0.00432107 -0.0018459 -0.000815315 -0.0011804 -0.00138305 -0.00135911 -0.0011804 0.00716303 -0.00135911 0.00700002 -0.00138305 -0.00135911 -0.0018459 -0.00148208 -0.00135911 0.00700002 -0.00148208 0.00688535 -0.0202104 -0.0169558 -0.0232107 -0.0195218 -0.0169558 -0.0135851 -0.0195218 -0.0156909 -0.0232107 -0.0195218 -0.0259164 -0.0218327 -0.0195218 -0.0156909 -0.0218327 -0.0175786 -0.0135851 -0.0102397 -0.0156909 -0.0118739 -0.0102397 -0.00707221 -0.0118739 -0.00824165 -0.0156909 -0.0118739 -0.0175786 -0.0133258 -0.0118739 -0.00824165 -0.0133258 -0.0092654 -0.0259164 -0.0218327 -0.0285721 -0.0240978 -0.0218327 -0.0175786 -0.0240978 -0.0194206 -0.0285721 -0.0240978 -0.0313972 -0.0265086 -0.0240978 -0.0194206 -0.0265086 -0.0213776 -0.0175786 -0.0133258 -0.0194206 -0.0147309 -0.0133258 -0.0092654 -0.0147309 -0.0102439 -0.0194206 -0.0147309 -0.0213776 -0.0162173 -0.0147309 -0.0102439 -0.0162173 -0.011272 -0.00707221 -0.00432107 -0.00824165 -0.00505562 -0.00432107 -0.0018459 -0.00505562 -0.00220959 -0.00824165 -0.00505562 -0.0092654 -0.0056851 -0.00505562 -0.00220959 -0.0056851 -0.0025107 -0.0018459 -0.00148208 -0.00220959 -0.0015764 -0.00148208 0.00688535 -0.0015764 0.00683302 -0.00220959 -0.0015764 -0.0025107 -0.00165915 -0.0015764 0.00683302 -0.00165915 0.00684054 -0.0092654 -0.0056851 -0.0102439 -0.0062772 -0.0056851 -0.0025107 -0.0062772 -0.00278638 -0.0102439 -0.0062772 -0.011272 -0.00689456 -0.0062772 -0.00278638 -0.00689456 -0.00306953 -0.0025107 -0.00165915 -0.00278638 -0.00174201 -0.00165915 0.00684054 -0.00174201 0.00691116 -0.00278638 -0.00174201 -0.00306953 -0.00183508 -0.00174201 0.00691116 -0.00183508 0.00704408 -0.0495303 -0.0496257 -0.0536922 -0.053891 -0.0496257 -0.0490497 -0.053891 -0.0533711 -0.0536922 -0.053891 -0.0583136 -0.0586564 -0.053891 -0.0533711 -0.0586564 -0.0582321 -0.0490497 -0.047783 -0.0533711 -0.0521041 -0.047783 -0.0458162 -0.0521041 -0.050071 -0.0533711 -0.0521041 -0.0582321 -0.057 -0.0521041 -0.050071 -0.057 -0.0549278 -0.0583136 -0.0586564 -0.063524 -0.0640607 -0.0586564 -0.0582321 -0.0640607 -0.0637819 -0.063524 -0.0640607 -0.0694164 -0.0702079 -0.0640607 -0.0637819 -0.0702079 -0.0701392 -0.0582321 -0.057 -0.0637819 -0.0626315 -0.057 -0.0549278 -0.0626315 -0.0605592 -0.0637819 -0.0626315 -0.0701392 -0.0691349 -0.0626315 -0.0605592 -0.0691349 -0.0671209 -0.0458162 -0.0431548 -0.050071 -0.0472682 -0.0431548 -0.0398245 -0.0472682 -0.0437144 -0.050071 -0.0472682 -0.0549278 -0.0519986 -0.0472682 -0.0437144 -0.0519986 -0.0482199 -0.0398245 -0.035877 -0.0437144 -0.0394587 -0.035877 -0.0313972 -0.0394587 -0.034589 -0.0437144 -0.0394587 -0.0482199 -0.0436346 -0.0394587 -0.034589 -0.0436346 -0.0383322 -0.0549278 -0.0519986 -0.0605592 -0.057529 -0.0519986 -0.0482199 -0.057529 -0.0535312 -0.0605592 -0.057529 -0.0671209 -0.0640348 -0.057529 -0.0535312 -0.0640348 -0.0598411 -0.0482199 -0.0436346 -0.0535312 -0.048597 -0.0436346 -0.0383322 -0.048597 -0.0428133 -0.0535312 -0.048597 -0.0598411 -0.0545501 -0.048597 -0.0428133 -0.0545501 -0.0482397 -0.0694164 -0.0702079 -0.0760526 -0.0771729 -0.0702079 -0.0701392 -0.0771729 -0.0773973 -0.0760526 -0.0771729 -0.0834633 -0.085 -0.0771729 -0.0773973 -0.085 -0.0856217 -0.0701392 -0.0691349 -0.0773973 -0.0766274 -0.0691349 -0.0671209 -0.0766274 -0.0747589 -0.0773973 -0.0766274 -0.0856217 -0.0852045 -0.0766274 -0.0747589 -0.0852045 -0.0836071 -0.0834633 -0.085 -0.0916402 -0.0936917 -0.085 -0.0856217 -0.0936917 -0.0948365 -0.0916402 -0.0936917 -0.100517 -0.103185 -0.0936917 -0.0948365 -0.103185 -0.104994 -0.0856217 -0.0852045 -0.0948365 -0.0949241 -0.0852045 -0.0836071 -0.0949241 -0.0937704 -0.0948365 -0.0949241 -0.104994 -0.10577 -0.0949241 -0.0937704 -0.10577 -0.105284 -0.0671209 -0.0640348 -0.0747589 -0.0716933 -0.0640348 -0.0598411 -0.0716933 -0.0673571 -0.0747589 -0.0716933 -0.0836071 -0.0806834 -0.0716933 -0.0673571 -0.0806834 -0.0763056 -0.0598411 -0.0545501 -0.0673571 -0.0617267 -0.0545501 -0.0482397 -0.0617267 -0.0548583 -0.0673571 -0.0617267 -0.0763056 -0.0703965 -0.0617267 -0.0548583 -0.0703965 -0.0629708 -0.0836071 -0.0806834 -0.0937704 -0.0911696 -0.0806834 -0.0763056 -0.0911696 -0.0869192 -0.0937704 -0.0911696 -0.105284 -0.103258 -0.0911696 -0.0869192 -0.103258 -0.0993927 -0.0763056 -0.0703965 -0.0869192 -0.080861 -0.070