# vtk DataFile Version 3.0
#This file was generated by the deal.II library on 2026/1/5 at 14:19:33
ASCII
DATASET UNSTRUCTURED_GRID

POINTS 4096 double
0 0 0
0.03125 0 0
0 0.03125 0
0.03125 0.03125 0
0.03125 0 0
0.0625 0 0
0.03125 0.03125 0
0.0625 0.03125 0
0 0.03125 0
0.03125 0.03125 0
0 0.0625 0
0.03125 0.0625 0
0.03125 0.03125 0
0.0625 0.03125 0
0.03125 0.0625 0
0.0625 0.0625 0
0.0625 0 0
0.09375 0 0
0.0625 0.03125 0
0.09375 0.03125 0
0.09375 0 0
0.125 0 0
0.09375 0.03125 0
0.125 0.03125 0
0.0625 0.03125 0
0.09375 0.03125 0
0.0625 0.0625 0
0.09375 0.0625 0
0.09375 0.03125 0
0.125 0.03125 0
0.09375 0.0625 0
0.125 0.0625 0
0 0.0625 0
0.03125 0.0625 0
0 0.09375 0
0.03125 0.09375 0
0.03125 0.0625 0
0.0625 0.0625 0
0.03125 0.09375 0
0.0625 0.09375 0
0 0.09375 0
0.03125 0.09375 0
0 0.125 0
0.03125 0.125 0
0.03125 0.09375 0
0.0625 0.09375 0
0.03125 0.125 0
0.0625 0.125 0
0.0625 0.0625 0
0.09375 0.0625 0
0.0625 0.09375 0
0.09375 0.09375 0
0.09375 0.0625 0
0.125 0.0625 0
0.09375 0.09375 0
0.125 0.09375 0
0.0625 0.09375 0
0.09375 0.09375 0
0.0625 0.125 0
0.09375 0.125 0
0.09375 0.09375 0
0.125 0.09375 0
0.09375 0.125 0
0.125 0.125 0
0.125 0 0
0.15625 0 0
0.125 0.03125 0
0.15625 0.03125 0
0.15625 0 0
0.1875 0 0
0.15625 0.03125 0
0.1875 0.03125 0
0.125 0.03125 0
0.15625 0.03125 0
0.125 0.0625 0
0.15625 0.0625 0
0.15625 0.03125 0
0.1875 0.03125 0
0.15625 0.0625 0
0.1875 0.0625 0
0.1875 0 0
0.21875 0 0
0.1875 0.03125 0
0.21875 0.03125 0
0.21875 0 0
0.25 0 0
0.21875 0.03125 0
0.25 0.03125 0
0.1875 0.03125 0
0.21875 0.03125 0
0.1875 0.0625 0
0.21875 0.0625 0
0.21875 0.03125 0
0.25 0.03125 0
0.21875 0.0625 0
0.25 0.0625 0
0.125 0.0625 0
0.15625 0.0625 0
0.125 0.09375 0
0.15625 0.09375 0
0.15625 0.0625 0
0.1875 0.0625 0
0.15625 0.09375 0
0.1875 0.09375 0
0.125 0.09375 0
0.15625 0.09375 0
0.125 0.125 0
0.15625 0.125 0
0.15625 0.09375 0
0.1875 0.09375 0
0.15625 0.125 0
0.1875 0.125 0
0.1875 0.0625 0
0.21875 0.0625 0
0.1875 0.09375 0
0.21875 0.09375 0
0.21875 0.0625 0
0.25 0.0625 0
0.21875 0.09375 0
0.25 0.09375 0
0.1875 0.09375 0
0.21875 0.09375 0
0.1875 0.125 0
0.21875 0.125 0
0.21875 0.09375 0
0.25 0.09375 0
0.21875 0.125 0
0.25 0.125 0
0 0.125 0
0.03125 0.125 0
0 0.15625 0
0.03125 0.15625 0
0.03125 0.125 0
0.0625 0.125 0
0.03125 0.15625 0
0.0625 0.15625 0
0 0.15625 0
0.03125 0.15625 0
0 0.1875 0
0.03125 0.1875 0
0.03125 0.15625 0
0.0625 0.15625 0
0.03125 0.1875 0
0.0625 0.1875 0
0.0625 0.125 0
0.09375 0.125 0
0.0625 0.15625 0
0.09375 0.15625 0
0.09375 0.125 0
0.125 0.125 0
0.09375 0.15625 0
0.125 0.15625 0
0.0625 0.15625 0
0.09375 0.15625 0
0.0625 0.1875 0
0.09375 0.1875 0
0.09375 0.15625 0
0.125 0.15625 0
0.09375 0.1875 0
0.125 0.1875 0
0 0.1875 0
0.03125 0.1875 0
0 0.21875 0
0.03125 0.21875 0
0.03125 0.1875 0
0.0625 0.1875 0
0.03125 0.21875 0
0.0625 0.21875 0
0 0.21875 0
0.03125 0.21875 0
0 0.25 0
0.03125 0.25 0
0.03125 0.21875 0
0.0625 0.21875 0
0.03125 0.25 0
0.0625 0.25 0
0.0625 0.1875 0
0.09375 0.1875 0
0.0625 0.21875 0
0.09375 0.21875 0
0.09375 0.1875 0
0.125 0.1875 0
0.09375 0.21875 0
0.125 0.21875 0
0.0625 0.21875 0
0.09375 0.21875 0
0.0625 0.25 0
0.09375 0.25 0
0.09375 0.21875 0
0.125 0.21875 0
0.09375 0.25 0
0.125 0.25 0
0.125 0.125 0
0.15625 0.125 0
0.125 0.15625 0
0.15625 0.15625 0
0.15625 0.125 0
0.1875 0.125 0
0.15625 0.15625 0
0.1875 0.15625 0
0.125 0.15625 0
0.15625 0.15625 0
0.125 0.1875 0
0.15625 0.1875 0
0.15625 0.15625 0
0.1875 0.15625 0
0.15625 0.1875 0
0.1875 0.1875 0
0.1875 0.125 0
0.21875 0.125 0
0.1875 0.15625 0
0.21875 0.15625 0
0.21875 0.125 0
0.25 0.125 0
0.21875 0.15625 0
0.25 0.15625 0
0.1875 0.15625 0
0.21875 0.15625 0
0.1875 0.1875 0
0.21875 0.1875 0
0.21875 0.15625 0
0.25 0.15625 0
0.21875 0.1875 0
0.25 0.1875 0
0.125 0.1875 0
0.15625 0.1875 0
0.125 0.21875 0
0.15625 0.21875 0
0.15625 0.1875 0
0.1875 0.1875 0
0.15625 0.21875 0
0.1875 0.21875 0
0.125 0.21875 0
0.15625 0.21875 0
0.125 0.25 0
0.15625 0.25 0
0.15625 0.21875 0
0.1875 0.21875 0
0.15625 0.25 0
0.1875 0.25 0
0.1875 0.1875 0
0.21875 0.1875 0
0.1875 0.21875 0
0.21875 0.21875 0
0.21875 0.1875 0
0.25 0.1875 0
0.21875 0.21875 0
0.25 0.21875 0
0.1875 0.21875 0
0.21875 0.21875 0
0.1875 0.25 0
0.21875 0.25 0
0.21875 0.21875 0
0.25 0.21875 0
0.21875 0.25 0
0.25 0.25 0
0.25 0 0
0.28125 0 0
0.25 0.03125 0
0.28125 0.03125 0
0.28125 0 0
0.3125 0 0
0.28125 0.03125 0
0.3125 0.03125 0
0.25 0.03125 0
0.28125 0.03125 0
0.25 0.0625 0
0.28125 0.0625 0
0.28125 0.03125 0
0.3125 0.03125 0
0.28125 0.0625 0
0.3125 0.0625 0
0.3125 0 0
0.34375 0 0
0.3125 0.03125 0
0.34375 0.03125 0
0.34375 0 0
0.375 0 0
0.34375 0.03125 0
0.375 0.03125 0
0.3125 0.03125 0
0.34375 0.03125 0
0.3125 0.0625 0
0.34375 0.0625 0
0.34375 0.03125 0
0.375 0.03125 0
0.34375 0.0625 0
0.375 0.0625 0
0.25 0.0625 0
0.28125 0.0625 0
0.25 0.09375 0
0.28125 0.09375 0
0.28125 0.0625 0
0.3125 0.0625 0
0.28125 0.09375 0
0.3125 0.09375 0
0.25 0.09375 0
0.28125 0.09375 0
0.25 0.125 0
0.28125 0.125 0
0.28125 0.09375 0
0.3125 0.09375 0
0.28125 0.125 0
0.3125 0.125 0
0.3125 0.0625 0
0.34375 0.0625 0
0.3125 0.09375 0
0.34375 0.09375 0
0.34375 0.0625 0
0.375 0.0625 0
0.34375 0.09375 0
0.375 0.09375 0
0.3125 0.09375 0
0.34375 0.09375 0
0.3125 0.125 0
0.34375 0.125 0
0.34375 0.09375 0
0.375 0.09375 0
0.34375 0.125 0
0.375 0.125 0
0.375 0 0
0.40625 0 0
0.375 0.03125 0
0.40625 0.03125 0
0.40625 0 0
0.4375 0 0
0.40625 0.03125 0
0.4375 0.03125 0
0.375 0.03125 0
0.40625 0.03125 0
0.375 0.0625 0
0.40625 0.0625 0
0.40625 0.03125 0
0.4375 0.03125 0
0.40625 0.0625 0
0.4375 0.0625 0
0.4375 0 0
0.46875 0 0
0.4375 0.03125 0
0.46875 0.03125 0
0.46875 0 0
0.5 0 0
0.46875 0.03125 0
0.5 0.03125 0
0.4375 0.03125 0
0.46875 0.03125 0
0.4375 0.0625 0
0.46875 0.0625 0
0.46875 0.03125 0
0.5 0.03125 0
0.46875 0.0625 0
0.5 0.0625 0
0.375 0.0625 0
0.40625 0.0625 0
0.375 0.09375 0
0.40625 0.09375 0
0.40625 0.0625 0
0.4375 0.0625 0
0.40625 0.09375 0
0.4375 0.09375 0
0.375 0.09375 0
0.40625 0.09375 0
0.375 0.125 0
0.40625 0.125 0
0.40625 0.09375 0
0.4375 0.09375 0
0.40625 0.125 0
0.4375 0.125 0
0.4375 0.0625 0
0.46875 0.0625 0
0.4375 0.09375 0
0.46875 0.09375 0
0.46875 0.0625 0
0.5 0.0625 0
0.46875 0.09375 0
0.5 0.09375 0
0.4375 0.09375 0
0.46875 0.09375 0
0.4375 0.125 0
0.46875 0.125 0
0.46875 0.09375 0
0.5 0.09375 0
0.46875 0.125 0
0.5 0.125 0
0.25 0.125 0
0.28125 0.125 0
0.25 0.15625 0
0.28125 0.15625 0
0.28125 0.125 0
0.3125 0.125 0
0.28125 0.15625 0
0.3125 0.15625 0
0.25 0.15625 0
0.28125 0.15625 0
0.25 0.1875 0
0.28125 0.1875 0
0.28125 0.15625 0
0.3125 0.15625 0
0.28125 0.1875 0
0.3125 0.1875 0
0.3125 0.125 0
0.34375 0.125 0
0.3125 0.15625 0
0.34375 0.15625 0
0.34375 0.125 0
0.375 0.125 0
0.34375 0.15625 0
0.375 0.15625 0
0.3125 0.15625 0
0.34375 0.15625 0
0.3125 0.1875 0
0.34375 0.1875 0
0.34375 0.15625 0
0.375 0.15625 0
0.34375 0.1875 0
0.375 0.1875 0
0.25 0.1875 0
0.28125 0.1875 0
0.25 0.21875 0
0.28125 0.21875 0
0.28125 0.1875 0
0.3125 0.1875 0
0.28125 0.21875 0
0.3125 0.21875 0
0.25 0.21875 0
0.28125 0.21875 0
0.25 0.25 0
0.28125 0.25 0
0.28125 0.21875 0
0.3125 0.21875 0
0.28125 0.25 0
0.3125 0.25 0
0.3125 0.1875 0
0.34375 0.1875 0
0.3125 0.21875 0
0.34375 0.21875 0
0.34375 0.1875 0
0.375 0.1875 0
0.34375 0.21875 0
0.375 0.21875 0
0.3125 0.21875 0
0.34375 0.21875 0
0.3125 0.25 0
0.34375 0.25 0
0.34375 0.21875 0
0.375 0.21875 0
0.34375 0.25 0
0.375 0.25 0
0.375 0.125 0
0.40625 0.125 0
0.375 0.15625 0
0.40625 0.15625 0
0.40625 0.125 0
0.4375 0.125 0
0.40625 0.15625 0
0.4375 0.15625 0
0.375 0.15625 0
0.40625 0.15625 0
0.375 0.1875 0
0.40625 0.1875 0
0.40625 0.15625 0
0.4375 0.15625 0
0.40625 0.1875 0
0.4375 0.1875 0
0.4375 0.125 0
0.46875 0.125 0
0.4375 0.15625 0
0.46875 0.15625 0
0.46875 0.125 0
0.5 0.125 0
0.46875 0.15625 0
0.5 0.15625 0
0.4375 0.15625 0
0.46875 0.15625 0
0.4375 0.1875 0
0.46875 0.1875 0
0.46875 0.15625 0
0.5 0.15625 0
0.46875 0.1875 0
0.5 0.1875 0
0.375 0.1875 0
0.40625 0.1875 0
0.375 0.21875 0
0.40625 0.21875 0
0.40625 0.1875 0
0.4375 0.1875 0
0.40625 0.21875 0
0.4375 0.21875 0
0.375 0.21875 0
0.40625 0.21875 0
0.375 0.25 0
0.40625 0.25 0
0.40625 0.21875 0
0.4375 0.21875 0
0.40625 0.25 0
0.4375 0.25 0
0.4375 0.1875 0
0.46875 0.1875 0
0.4375 0.21875 0
0.46875 0.21875 0
0.46875 0.1875 0
0.5 0.1875 0
0.46875 0.21875 0
0.5 0.21875 0
0.4375 0.21875 0
0.46875 0.21875 0
0.4375 0.25 0
0.46875 0.25 0
0.46875 0.21875 0
0.5 0.21875 0
0.46875 0.25 0
0.5 0.25 0
0 0.25 0
0.03125 0.25 0
0 0.28125 0
0.03125 0.28125 0
0.03125 0.25 0
0.0625 0.25 0
0.03125 0.28125 0
0.0625 0.28125 0
0 0.28125 0
0.03125 0.28125 0
0 0.3125 0
0.03125 0.3125 0
0.03125 0.28125 0
0.0625 0.28125 0
0.03125 0.3125 0
0.0625 0.3125 0
0.0625 0.25 0
0.09375 0.25 0
0.0625 0.28125 0
0.09375 0.28125 0
0.09375 0.25 0
0.125 0.25 0
0.09375 0.28125 0
0.125 0.28125 0
0.0625 0.28125 0
0.09375 0.28125 0
0.0625 0.3125 0
0.09375 0.3125 0
0.09375 0.28125 0
0.125 0.28125 0
0.09375 0.3125 0
0.125 0.3125 0
0 0.3125 0
0.03125 0.3125 0
0 0.34375 0
0.03125 0.34375 0
0.03125 0.3125 0
0.0625 0.3125 0
0.03125 0.34375 0
0.0625 0.34375 0
0 0.34375 0
0.03125 0.34375 0
0 0.375 0
0.03125 0.375 0
0.03125 0.34375 0
0.0625 0.34375 0
0.03125 0.375 0
0.0625 0.375 0
0.0625 0.3125 0
0.09375 0.3125 0
0.0625 0.34375 0
0.09375 0.34375 0
0.09375 0.3125 0
0.125 0.3125 0
0.09375 0.34375 0
0.125 0.34375 0
0.0625 0.34375 0
0.09375 0.34375 0
0.0625 0.375 0
0.09375 0.375 0
0.09375 0.34375 0
0.125 0.34375 0
0.09375 0.375 0
0.125 0.375 0
0.125 0.25 0
0.15625 0.25 0
0.125 0.28125 0
0.15625 0.28125 0
0.15625 0.25 0
0.1875 0.25 0
0.15625 0.28125 0
0.1875 0.28125 0
0.125 0.28125 0
0.15625 0.28125 0
0.125 0.3125 0
0.15625 0.3125 0
0.15625 0.28125 0
0.1875 0.28125 0
0.15625 0.3125 0
0.1875 0.3125 0
0.1875 0.25 0
0.21875 0.25 0
0.1875 0.28125 0
0.21875 0.28125 0
0.21875 0.25 0
0.25 0.25 0
0.21875 0.28125 0
0.25 0.28125 0
0.1875 0.28125 0
0.21875 0.28125 0
0.1875 0.3125 0
0.21875 0.3125 0
0.21875 0.28125 0
0.25 0.28125 0
0.21875 0.3125 0
0.25 0.3125 0
0.125 0.3125 0
0.15625 0.3125 0
0.125 0.34375 0
0.15625 0.34375 0
0.15625 0.3125 0
0.1875 0.3125 0
0.15625 0.34375 0
0.1875 0.34375 0
0.125 0.34375 0
[...]
POINT_DATA 4096
SCALARS u_x double 1
LOOKUP_TABLE default
1.74714e-05 1.55742e-05 -3.46793e-05 -9.35754e-05 1.55742e-05 2.00861e-05 -9.35754e-05 -0.000504974 -3.46793e-05 -9.35754e-05 -0.000155177 -0.000275265 -9.35754e-05 -0.000504974 -0.000275265 -0.00111901 2.00861e-05 1.28392e-05 -0.000504974 -0.00119864 1.28392e-05 2.76852e-07 -0.00119864 -0.0020982 -0.000504974 -0.00119864 -0.00111901 -0.00237221 -0.00119864 -0.0020982 -0.00237221 -0.00393349 -0.000155177 -0.000275265 -0.000259825 -0.000424041 -0.000275265 -0.00111901 -0.000424041 -0.00163045 -0.000259825 -0.000424041 -0.000304244 -0.000531467 -0.000424041 -0.00163045 -0.000531467 -0.00200442 -0.00111901 -0.00237221 -0.00163045 -0.00332826 -0.00237221 -0.00393349 -0.00332826 -0.00538598 -0.00163045 -0.00332826 -0.00200442 -0.00404277 -0.00332826 -0.00538598 -0.00404277 -0.0064746 2.76852e-07 -1.37908e-05 -0.0020982 -0.00310723 -1.37908e-05 -2.76581e-05 -0.00310723 -0.00415221 -0.0020982 -0.00310723 -0.00393349 -0.00566233 -0.00310723 -0.00415221 -0.00566233 -0.00744865 -2.76581e-05 -4.07152e-05 -0.00415221 -0.00518205 -4.07152e-05 -5.27844e-05 -0.00518205 -0.0061634 -0.00415221 -0.00518205 -0.00744865 -0.00921048 -0.00518205 -0.0061634 -0.00921048 -0.0108913 -0.00393349 -0.00566233 -0.00538598 -0.00763428 -0.00566233 -0.00744865 -0.00763428 -0.00994471 -0.00538598 -0.00763428 -0.0064746 -0.00910572 -0.00763428 -0.00994471 -0.00910572 -0.0117946 -0.00744865 -0.00921048 -0.00994471 -0.0122192 -0.00921048 -0.0108913 -0.0122192 -0.0143878 -0.00994471 -0.0122192 -0.0117946 -0.014434 -0.0122192 -0.0143878 -0.014434 -0.0169469 -0.000304244 -0.000531467 -0.000270716 -0.00061323 -0.000531467 -0.00200442 -0.00061323 -0.0022706 -0.000270716 -0.00061323 -0.000153091 -0.000686259 -0.00061323 -0.0022706 -0.000686259 -0.00247261 -0.00200442 -0.00404277 -0.0022706 -0.00457054 -0.00404277 -0.0064746 -0.00457054 -0.00729141 -0.0022706 -0.00457054 -0.00247261 -0.0049873 -0.00457054 -0.00729141 -0.0049873 -0.00794755 -0.000153091 -0.000686259 5.09742e-05 -0.000763534 -0.000686259 -0.00247261 -0.000763534 -0.00264848 5.09742e-05 -0.000763534 0.000343466 -0.000853996 -0.000763534 -0.00264848 -0.000853996 -0.00282597 -0.00247261 -0.0049873 -0.00264848 -0.00536133 -0.0049873 -0.00794755 -0.00536133 -0.0085425 -0.00264848 -0.00536133 -0.00282597 -0.00574425 -0.00536133 -0.0085425 -0.00574425 -0.00915242 -0.0064746 -0.00910572 -0.00729141 -0.0102182 -0.00910572 -0.0117946 -0.0102182 -0.0131965 -0.00729141 -0.0102182 -0.00794755 -0.0111229 -0.0102182 -0.0131965 -0.0111229 -0.0143447 -0.0117946 -0.014434 -0.0131965 -0.016112 -0.014434 -0.0169469 -0.016112 -0.0188831 -0.0131965 -0.016112 -0.0143447 -0.0174919 -0.016112 -0.0188831 -0.0174919 -0.0204789 -0.00794755 -0.0111229 -0.0085425 -0.0119511 -0.0111229 -0.0143447 -0.0119511 -0.0154033 -0.0085425 -0.0119511 -0.00915242 -0.0128031 -0.0119511 -0.0154033 -0.0128031 -0.0164957 -0.0143447 -0.0174919 -0.0154033 -0.0187703 -0.0174919 -0.0204789 -0.0187703 -0.0219623 -0.0154033 -0.0187703 -0.0164957 -0.020093 -0.0187703 -0.0219623 -0.020093 -0.0235002 -5.27844e-05 -6.38405e-05 -0.0061634 -0.00707445 -6.38405e-05 -7.38762e-05 -0.00707445 -0.0079001 -0.0061634 -0.00707445 -0.0108913 -0.0124525 -0.00707445 -0.0079001 -0.0124525 -0.0138668 -7.38762e-05 -8.28565e-05 -0.0079001 -0.00862889 -8.28565e-05 -9.07126e-05 -0.00862889 -0.00925124 -0.0079001 -0.00862889 -0.0138668 -0.0151134 -0.00862889 -0.00925124 -0.0151134 -0.0161753 -0.0108913 -0.0124525 -0.0143878 -0.0164013 -0.0124525 -0.0138668 -0.0164013 -0.0182241 -0.0143878 -0.0164013 -0.0169469 -0.0192781 -0.0164013 -0.0182241 -0.0192781 -0.0213868 -0.0138668 -0.0151134 -0.0182241 -0.0198289 -0.0151134 -0.0161753 -0.0198289 -0.0211937 -0.0182241 -0.0198289 -0.0213868 -0.023242 -0.0198289 -0.0211937 -0.023242 -0.0248182 -9.07126e-05 -9.73494e-05 -0.00925124 -0.00975885 -9.73494e-05 -0.000102656 -0.00975885 -0.0101444 -0.00925124 -0.00975885 -0.0161753 -0.0170384 -0.00975885 -0.0101444 -0.0170384 -0.0176903 -0.000102656 -0.000106517 -0.0101444 -0.0104014 -0.000106517 -0.000108823 -0.0104014 -0.0105249 -0.0101444 -0.0104014 -0.0176903 -0.0181206 -0.0104014 -0.0105249 -0.0181206 -0.018321 -0.0161753 -0.0170384 -0.0211937 -0.0223001 -0.0170384 -0.0176903 -0.0223001 -0.0231326 -0.0211937 -0.0223001 -0.0248182 -0.0260943 -0.0223001 -0.0231326 -0.0260943 -0.0270529 -0.0176903 -0.0181206 -0.0231326 -0.0236782 -0.0181206 -0.018321 -0.0236782 -0.0239268 -0.0231326 -0.0236782 -0.0270529 -0.0276792 -0.0236782 -0.0239268 -0.0276792 -0.027962 -0.0169469 -0.0192781 -0.0188831 -0.0214512 -0.0192781 -0.0213868 -0.0214512 -0.0237729 -0.0188831 -0.0214512 -0.0204789 -0.0232446 -0.0214512 -0.0237729 -0.0232446 -0.0257442 -0.0213868 -0.023242 -0.0237729 -0.0258146 -0.023242 -0.0248182 -0.0258146 -0.0275491 -0.0237729 -0.0258146 -0.0257442 -0.0279425 -0.0258146 -0.0275491 -0.0279425 -0.0298113 -0.0204789 -0.0232446 -0.0219623 -0.024916 -0.0232446 -0.0257442 -0.024916 -0.0275852 -0.0219623 -0.024916 -0.0235002 -0.0266517 -0.024916 -0.0275852 -0.0266517 -0.0294998 -0.0257442 -0.0279425 -0.0275852 -0.029934 -0.0279425 -0.0298113 -0.029934 -0.0319333 -0.0275852 -0.029934 -0.0294998 -0.0320083 -0.029934 -0.0319333 -0.0320083 -0.0341477 -0.0248182 -0.0260943 -0.0275491 -0.0289536 -0.0260943 -0.0270529 -0.0289536 -0.0300091 -0.0275491 -0.0289536 -0.0298113 -0.0313267 -0.0289536 -0.0300091 -0.0313267 -0.0324687 -0.0270529 -0.0276792 -0.0300091 -0.0306998 -0.0276792 -0.027962 -0.0306998 -0.0310135 -0.0300091 -0.0306998 -0.0324687 -0.0332205 -0.0306998 -0.0310135 -0.0332205 -0.0335688 -0.0298113 -0.0313267 -0.0319333 -0.0335588 -0.0313267 -0.0324687 -0.0335588 -0.0347897 -0.0319333 -0.0335588 -0.0341477 -0.0358931 -0.0335588 -0.0347897 -0.0358931 -0.0372232 -0.0324687 -0.0332205 -0.0347897 -0.0356081 -0.0332205 -0.0335688 -0.0356081 -0.0359994 -0.0347897 -0.0356081 -0.0372232 -0.0381193 -0.0356081 -0.0359994 -0.0381193 -0.0385654 0.000343466 -0.000853996 0.000727558 -0.000963547 -0.000853996 -0.00282597 -0.000963547 -0.0030235 0.000727558 -0.000963547 0.00120818 -0.00109628 -0.000963547 -0.0030235 -0.00109628 -0.00325306 -0.00282597 -0.00574425 -0.0030235 -0.00617161 -0.00574425 -0.00915242 -0.00617161 -0.00983059 -0.0030235 -0.00617161 -0.00325306 -0.00666731 -0.00617161 -0.00983059 -0.00666731 -0.0106135 0.00120818 -0.00109628 0.00179218 -0.00125552 -0.00109628 -0.00325306 -0.00125552 -0.00352316 0.00179218 -0.00125552 0.00248835 -0.00144459 -0.00125552 -0.00352316 -0.00144459 -0.00384123 -0.00325306 -0.00666731 -0.00352316 -0.00724879 -0.00666731 -0.0106135 -0.00724879 -0.0115277 -0.00352316 -0.00724879 -0.00384123 -0.00793139 -0.00724879 -0.0115277 -0.00793139 -0.0125966 -0.00915242 -0.0128031 -0.00983059 -0.0137494 -0.0128031 -0.0164957 -0.0137494 -0.0177083 -0.00983059 -0.0137494 -0.0106135 -0.0148382 -0.0137494 -0.0177083 -0.0148382 -0.0191003 -0.0164957 -0.020093 -0.0177083 -0.021561 -0.020093 -0.0235002 -0.021561 -0.025207 -0.0177083 -0.021561 -0.0191003 -0.0232429 -0.021561 -0.025207 -0.0232429 -0.0271591 -0.0106135 -0.0148382 -0.0115277 -0.0161052 -0.0148382 -0.0191003 -0.0161052 -0.0207145 -0.0115277 -0.0161052 -0.0125966 -0.0175806 -0.0161052 -0.0207145 -0.0175806 -0.0225872 -0.0191003 -0.0232429 -0.0207145 -0.0251873 -0.0232429 -0.0271591 -0.0251873 -0.0294098 -0.0207145 -0.0251873 -0.0225872 -0.0274347 -0.0251873 -0.0294098 -0.0274347 -0.0320018 0.00248835 -0.00144459 0.00330748 -0.00166732 -0.00144459 -0.00384123 -0.00166732 -0.00421542 0.00330748 -0.00166732 0.00426262 -0.00192858 -0.00166732 -0.00421542 -0.00192858 -0.00465601 -0.00384123 -0.00793139 -0.00421542 -0.00873163 -0.00793139 -0.0125966 -0.00873163 -0.0138448 -0.00421542 -0.00873163 -0.00465601 -0.0096699 -0.00873163 -0.0138448 -0.0096699 -0.0153019 0.00426262 -0.00192858 0.0053693 -0.00223468 -0.00192858 -0.00465601 -0.00223468 -0.00517681 0.0053693 -0.00223468 0.00664607 -0.002594 -0.00223468 -0.00517681 -0.002594 -0.00579692 -0.00465601 -0.0096699 -0.00517681 -0.0107731 -0.0096699 -0.0153019 -0.0107731 -0.0170066 -0.00517681 -0.0107731 -0.00579692 -0.0120775 -0.0107731 -0.0170066 -0.0120775 -0.0190099 -0.0125966 -0.0175806 -0.0138448 -0.0192961 -0.0175806 -0.0225872 -0.0192961 -0.0247548 -0.0138448 -0.0192961 -0.0153019 -0.021289 -0.0192961 -0.0247548 -0.021289 -0.0272598 -0.0225872 -0.0274347 -0.0247548 -0.0300243 -0.0274347 -0.0320018 -0.0300243 -0.0349755 -0.0247548 -0.0300243 -0.0272598 -0.0330008 -0.0300243 -0.0349755 -0.0330008 -0.038375 -0.0153019 -0.021289 -0.0170066 -0.0236067 -0.021289 -0.0272598 -0.0236067 -0.0301545 -0.0170066 -0.0236067 -0.0190099 -0.026311 -0.0236067 -0.0301545 -0.026311 -0.0335059 -0.0272598 -0.0330008 -0.0301545 -0.0364177 -0.0330008 -0.038375 -0.0364177 -0.0422519 -0.0301545 -0.0364177 -0.0335059 -0.040342 -0.0364177 -0.0422519 -0.040342 -0.0466687 -0.0235002 -0.0266517 -0.025207 -0.0285778 -0.0266517 -0.0294998 -0.0285778 -0.0316248 -0.025207 -0.0285778 -0.0271591 -0.0307776 -0.0285778 -0.0316248 -0.0307776 -0.0340487 -0.0294998 -0.0320083 -0.0316248 -0.0343111 -0.0320083 -0.0341477 -0.0343111 -0.0366075 -0.0316248 -0.0343111 -0.0340487 -0.0369357 -0.0343111 -0.0366075 -0.0369357 -0.0394098 -0.0271591 -0.0307776 -0.0294098 -0.0333076 -0.0307776 -0.0340487 -0.0333076 -0.0368306 -0.0294098 -0.0333076 -0.0320018 -0.0362117 -0.0333076 -0.0368306 -0.0362117 -0.0400144 -0.0340487 -0.0369357 -0.0368306 -0.0399428 -0.0369357 -0.0394098 -0.0399428 -0.0426167 -0.0368306 -0.0399428 -0.0400144 -0.043376 -0.0399428 -0.0426167 -0.043376 -0.0462712 -0.0341477 -0.0358931 -0.0366075 -0.0384889 -0.0358931 -0.0372232 -0.0384889 -0.0399337 -0.0366075 -0.0384889 -0.0394098 -0.0414464 -0.0384889 -0.0399337 -0.0414464 -0.0430239 -0.0372232 -0.0381193 -0.0399337 -0.0409222 -0.0381193 -0.0385654 -0.0409222 -0.0414369 -0.0399337 -0.0409222 -0.0430239 -0.0441221 -0.0409222 -0.0414369 -0.0441221 -0.0447217 -0.0394098 -0.0414464 -0.0426167 -0.044829 -0.0414464 -0.0430239 -0.044829 -0.0465588 -0.0426167 -0.044829 -0.0462712 -0.0486793 -0.044829 -0.0465588 -0.0486793 -0.0505813 -0.0430239 -0.0441221 -0.0465588 -0.0477856 -0.0441221 -0.0447217 -0.0477856 -0.0484891 -0.0465588 -0.0477856 -0.0505813 -0.0519574 -0.0477856 -0.0484891 -0.0519574 -0.0527861 -0.0320018 -0.0362117 -0.0349755 -0.0395296 -0.0362117 -0.0400144 -0.0395296 -0.0436382 -0.0349755 -0.0395296 -0.038375 -0.043303 -0.0395296 -0.0436382 -0.043303 -0.04774 -0.0400144 -0.043376 -0.0436382 -0.0472709 -0.043376 -0.0462712 -0.0472709 -0.0504067 -0.0436382 -0.0472709 -0.04774 -0.0516612 -0.0472709 -0.0504067 -0.0516612 -0.0550527 -0.038375 -0.043303 -0.0422519 -0.047579 -0.043303 -0.04774 -0.047579 -0.0523605 -0.0422519 -0.047579 -0.0466687 -0.0524124 -0.047579 -0.0523605 -0.0524124 -0.057545 -0.04774 -0.0516612 -0.0523605 -0.0565808 -0.0516612 -0.0550527 -0.0565808 -0.0602361 -0.0523605 -0.0565808 -0.057545 -0.0620645 -0.0565808 -0.0602361 -0.0620645 -0.0659816 -0.0462712 -0.0486793 -0.0504067 -0.0530292 -0.0486793 -0.0505813 -0.0530292 -0.0551226 -0.0504067 -0.0530292 -0.0550527 -0.0579045 -0.0530292 -0.0551226 -0.0579045 -0.0602066 -0.0505813 -0.0519574 -0.0551226 -0.0566694 -0.0519574 -0.0527861 -0.0566694 -0.0576478 -0.0551226 -0.0566694 -0.0602066 -0.0619455 -0.0566694 -0.0576478 -0.0619455 -0.0631006 -0.0550527 -0.0579045 -0.0602361 -0.0633264 -0.0579045 -0.0602066 -0.0633264 -0.0658505 -0.0602361 -0.0633264 -0.0659816 -0.0693105 -0.0633264 -0.0658505 -0.0693105 -0.0720629 -0.0602066 -0.0619455 -0.0658505 -0.0678013 -0.0619455 -0.0631006 -0.0678013 -0.0691621 -0.0658505 -0.0678013 -0.0720629 -0.0742418 -0.0678013 -0.0691621 -0.0742418 -0.0758372 -0.000108823 -0.000109474 -0.0105249 -0.0105108 -0.000109474 -0.00010839 -0.0105108 -0.0103567 -0.0105249 -0.0105108 -0.018321 -0.0182855 -0.0105108 -0.0103567 -0.0182855 -0.0180105 -0.00010839 -0.000105506 -0.0103567 -0.0100619 -0.000105506 -0.000100783 -0.0100619 -0.00962718 -0.0103567 -0.0100619 -0.0180105 -0.0174954 -0.0100619 -0.00962718 -0.0174954 -0.0167425 -0.018321 -0.0182855 -0.0239268 -0.0238712 -0.0182855 -0.0180105 -0.0238712 -0.0235073 -0.0239268 -0.0238712 -0.027962 -0.0278931 -0.0238712 -0.0235073 -0.0278931 -0.0274683 -0.0180105 -0.0174954 -0.0235073 -0.0228348 -0.0174954 -0.0167425 -0.0228348 -0.0218571 -0.0235073 -0.0228348 -0.0274683 -0.0266869 -0.0228348 -0.0218571 -0.0266869 -0.0255531 -0.000100783 -9.42098e-05 -0.00962718 -0.0090557 -9.42098e-05 -8.57952e-05 -0.0090557 -0.0083528 -0.00962718 -0.0090557 -0.0167425 -0.0157575 -0.0090557 -0.0083528 -0.0157575 -0.0145505 -8.57952e-05 -7.55672e-05 -0.0083528 -0.00752675 -7.55672e-05 -6.35798e-05 -0.00752675 -0.00658973 -0.0083528 -0.00752675 -0.0145505 -0.0131364 -0.00752675 -0.00658973 -0.0131364 -0.0115371 -0.0167425 -0.0157575 -0.0218571 -0.0205822 -0.0157575 -0.0145505 -0.0205822 -0.0190234 -0.0218571 -0.0205822 -0.0255531 -0.0240762 -0.0205822 -0.0190234 -0.0240762 -0.0222713 -0.0145505 -0.0131364 -0.0190234 -0.0172004 -0.0131364 -0.0115371 -0.0172004 -0.015142 -0.0190234 -0.0172004 -0.0222713 -0.0201613 -0.0172004 -0.015142 -0.0201613 -0.0177792 -0.027962 -0.0278931 -0.0310135 -0.030941 -0.0278931 -0.0274683 -0.030941 -0.0304774 -0.0310135 -0.030941 -0.0335688 -0.0335034 -0.030941 -0.0304774 -0.0335034 -0.033018 -0.0274683 -0.0266869 -0.0304774 -0.0296216 -0.0266869 -0.0255531 -0.0296216 -0.0283776 -0.0304774 -0.0296216 -0.033018 -0.0321107 -0.0296216 -0.0283776 -0.0321107 -0.0307841 -0.0335688 -0.0335034 -0.0359994 -0.0359522 -0.0335034 -0.033018 -0.0359522 -0.0354583 -0.0359994 -0.0359522 -0.0385654 -0.0385479 -0.0359522 -0.0354583 -0.0385479 -0.0380565 -0.033018 -0.0321107 -0.0354583 -0.0345138 -0.0321107 -0.0307841 -0.0345138 -0.0331195 -0.0354583 -0.0345138 -0.0380565 -0.0370845 -0.0345138 -0.0331195 -0.0370845 -0.0356296 -0.0255531 -0.0240762 -0.0283776 -0.0267548 -0.0240762 -0.0222713 -0.0267548 -0.0247693 -0.0283776 -0.0267548 -0.0307841 -0.0290471 -0.0267548 -0.0247693 -0.0290471 -0.0269153 -0.0222713 -0.0201613 -0.0247693 -0.0224455 -0.0201613 -0.0177792 -0.0224455 -0.0198186 -0.0247693 -0.0224455 -0.0269153 -0.0244136 -0.0224455 -0.0198186 -0.0244136 -0.0215787 -0.0307841 -0.0290471 -0.0331195 -0.0312823 -0.0290471 -0.0269153 -0.0312823 -0.0290168 -0.0331195 -0.0312823 -0.0356296 -0.0336959 -0.0312823 -0.0290168 -0.0336959 -0.0312953 -0.0269153 -0.0244136 -0.0290168 -0.0263471 -0.0244136 -0.0215787 -0.0263471 -0.0233108 -0.0290168 -0.0263471 -0.0312953 -0.0284508 -0.0263471 -0.0233108 -0.0284508 -0.0252001 -6.35798e-05 -4.9914e-05 -0.00658973 -0.0055599 -4.9914e-05 -3.48426e-05 -0.0055599 -0.004464 -0.00658973 -0.0055599 -0.0115371 -0.00978448 -0.0055599 -0.004464 -0.00978448 -0.00792477 -3.48426e-05 -1.8426e-05 -0.004464 -0.00334533 -1.8426e-05 -3.39836e-06 -0.00334533 -0.00225133 -0.004464 -0.00334533 -0.00792477 -0.00602793 -0.00334533 -0.00225133 -0.00602793 -0.00417449 -0.0115371 -0.00978448 -0.015142 -0.0128892 -0.00978448 -0.00792477 -0.0128892 -0.0105001 -0.015142 -0.0128892 -0.0177792 -0.0151715 -0.0128892 -0.0105001 -0.0151715 -0.0124036 -0.00792477 -0.00602793 -0.0105001 -0.00806014 -0.00602793 -0.00417449 -0.00806014 -0.00566824 -0.0105001 -0.00806014 -0.0124036 -0.00956984 -0.00806014 -0.00566824 -0.00956984 -0.00678053 -3.39836e-06 1.07476e-05 -0.00225133 -0.00133108 1.07476e-05 5.93314e-05 -0.00133108 -0.000298932 -0.00225133 -0.00133108 -0.00417449 -0.00256512 -0.00133108 -0.000298932 -0.00256512 -0.00091537 5.93314e-05 -1.88748e-05 -0.000298932 -0.00125852 -1.88748e-05 0.00988633 -0.00125852 0.00877879 -0.000298932 -0.00125852 -0.00091537 -0.00150431 -0.00125852 0.00877879 -0.00150431 0.00917278 -0.00417449 -0.00256512 -0.00566824 -0.00354712 -0.00256512 -0.00091537 -0.00354712 -0.00143566 -0.00566824 -0.00354712 -0.00678053 -0.00427349 -0.00354712 -0.00143566 -0.00427349 -0.00181421 -0.00091537 -0.00150431 -0.00143566 -0.00168217 -0.00150431 0.00917278 -0.00168217 0.00903855 -0.00143566 -0.00168217 -0.00181421 -0.00179009 -0.00168217 0.00903855 -0.00179009 0.00898374 -0.0177792 -0.0151715 -0.0198186 -0.0169389 -0.0151715 -0.0124036 -0.0169389 -0.0138768 -0.0198186 -0.0169389 -0.0215787 -0.0184635 -0.0169389 -0.0138768 -0.0184635 -0.0151429 -0.0124036 -0.00956984 -0.0138768 -0.0107332 -0.00956984 -0.00678053 -0.0107332 -0.0076283 -0.0138768 -0.0107332 -0.0151429 -0.0117249 -0.0107332 -0.0076283 -0.0117249 -0.00834081 -0.0215787 -0.0184635 -0.0233108 -0.0199634 -0.0184635 -0.0151429 -0.0199634 -0.0163849 -0.0233108 -0.0199634 -0.0252001 -0.0216014 -0.0199634 -0.0163849 -0.0216014 -0.017741 -0.0151429 -0.0117249 -0.0163849 -0.0126921 -0.0117249 -0.00834081 -0.0126921 -0.00902933 -0.0163849 -0.0126921 -0.017741 -0.0137467 -0.0126921 -0.00902933 -0.0137467 -0.00977843 -0.00678053 -0.00427349 -0.0076283 -0.00481565 -0.00427349 -0.00181421 -0.00481565 -0.00208356 -0.0076283 -0.00481565 -0.00834081 -0.00526218 -0.00481565 -0.00208356 -0.00526218 -0.00229663 -0.00181421 -0.00179009 -0.00208356 -0.0018697 -0.00179009 0.00898374 -0.0018697 0.00901545 -0.00208356 -0.0018697 -0.00229663 -0.00194354 -0.0018697 0.00901545 -0.00194354 0.00912536 -0.00834081 -0.00526218 -0.00902933 -0.00568929 -0.00526218 -0.00229663 -0.00568929 -0.00249544 -0.00902933 -0.00568929 -0.00977843 -0.00615368 -0.00568929 -0.00249544 -0.00615368 -0.00270998 -0.00229663 -0.00194354 -0.00249544 -0.00202439 -0.00194354 0.00912536 -0.00202439 0.00931636 -0.00249544 -0.00202439 -0.00270998 -0.00212158 -0.00202439 0.00931636 -0.00212158 0.00958876 -0.0385654 -0.0385479 -0.0414369 -0.0414621 -0.0385479 -0.0380565 -0.0414621 -0.0409842 -0.0414369 -0.0414621 -0.0447217 -0.0448046 -0.0414621 -0.0409842 -0.0448046 -0.0443533 -0.0380565 -0.0370845 -0.0409842 -0.0399928 -0.0370845 -0.0356296 -0.0399928 -0.0384815 -0.0409842 -0.0399928 -0.0443533 -0.0433524 -0.0399928 -0.0384815 -0.0433524 -0.0417897 -0.0447217 -0.0448046 -0.0484891 -0.0486478 -0.0448046 -0.0443533 -0.0486478 -0.0482399 -0.0484891 -0.0486478 -0.0527861 -0.0530432 -0.0486478 -0.0482399 -0.0530432 -0.0527013 -0.0443533 -0.0433524 -0.0482399 -0.0472436 -0.0433524 -0.0417897 -0.0472436 -0.0456392 -0.0482399 -0.0472436 -0.0527013 -0.051731 -0.0472436 -0.0456392 -0.051731 -0.0501023 -0.0356296 -0.0336959 -0.0384815 -0.0364499 -0.0336959 -0.0312953 -0.0364499 -0.0339062 -0.0384815 -0.0364499 -0.0417897 -0.0396588 -0.0364499 -0.0339062 -0.0396588 -0.036962 -0.0312953 -0.0284508 -0.0339062 -0.0308706 -0.0284508 -0.0252001 -0.0308706 -0.0273804 -0.0339062 -0.0308706 -0.036962 -0.0337152 -0.0308706 -0.0273804 -0.0337152 -0.029954 -0.0417897 -0.0396588 -0.0456392 -0.0434116 -0.0396588 -0.036962 -0.0434116 -0.0405546 -0.0456392 -0.0434116 -0.0501023 -0.0477885 -0.0434116 -0.0405546 -0.0477885 -0.0447712 -0.036962 -0.0337152 -0.0405546 -0.0370771 -0.0337152 -0.029954 -0.0370771 -0.0330111 -0.0405546 -0.0370771 -0.0447712 -0.0410483 -0.0370771 -0.0330111 -0.0410483 -0.0366446 -0.0527861 -0.0530432 -0.0576478 -0.0580308 -0.0530432 -0.0527013 -0.0580308 -0.0577851 -0.0576478 -0.0580308 -0.0631006 -0.0636429 -0.0580308 -0.0577851 -0.0636429 -0.0635329 -0.0527013 -0.051731 -0.0577851 -0.0568718 -0.051731 -0.0501023 -0.0568718 -0.0552481 -0.0577851 -0.0568718 -0.0635329 -0.0627206 -0.0568718 -0.0552481 -0.0627206 -0.0611474 -0.0631006 -0.0636429 -0.0691621 -0.069903 -0.0636429 -0.0635329 -0.069903 -0.069979 -0.0691621 -0.069903 -0.0758372 -0.0768216 -0.069903 -0.069979 -0.0768216 -0.0771456 -0.0635329 -0.0627206 -0.069979 -0.069328 -0.0627206 -0.0611474 -0.069328 -0.0678719 -0.069979 -0.069328 -0.0771456 -0.0767352 -0.069328 -0.0678719 -0.0767352 -0.0754902 -0.0501023 -0.0477885 -0.0552481 -0.0528715 -0.0477885 -0.0447712 -0.0528715 -0.0497059 -0.0552481 -0.0528715 -0.0611474 -0.0587494 -0.0528715 -0.0497059 -0.0587494 -0.0554665 -0.0447712 -0.0410483 -0.0497059 -0.0457326 -0.0410483 -0.0366446 -0.0457326 -0.0409636 -0.0497059 -0.0457326 -0.0554665 -0.0512546 -0.0457326 -0.0409636 -0.0512546 -0.0461044 -0.0611474 -0.0587494 -0.0678719 -0.0655201 -0.0587494 -0.0554665 -0.0655201 -0.062179 -0.0678719 -0.0655201 -0.0754902 -0.073287 -0.0655201 