# vtk DataFile Version 3.0
#This file was generated by the deal.II library on 2026/1/5 at 14:19:33
ASCII
DATASET UNSTRUCTURED_GRID

POINTS 4096 double
0 0 0
0.03125 0 0
0 0.03125 0
0.03125 0.03125 0
0.03125 0 0
0.0625 0 0
0.03125 0.03125 0
0.0625 0.03125 0
0 0.03125 0
0.03125 0.03125 0
0 0.0625 0
0.03125 0.0625 0
0.03125 0.03125 0
0.0625 0.03125 0
0.03125 0.0625 0
0.0625 0.0625 0
0.0625 0 0
0.09375 0 0
0.0625 0.03125 0
0.09375 0.03125 0
0.09375 0 0
0.125 0 0
0.09375 0.03125 0
0.125 0.03125 0
0.0625 0.03125 0
0.09375 0.03125 0
0.0625 0.0625 0
0.09375 0.0625 0
0.09375 0.03125 0
0.125 0.03125 0
0.09375 0.0625 0
0.125 0.0625 0
0 0.0625 0
0.03125 0.0625 0
0 0.09375 0
0.03125 0.09375 0
0.03125 0.0625 0
0.0625 0.0625 0
0.03125 0.09375 0
0.0625 0.09375 0
0 0.09375 0
0.03125 0.09375 0
0 0.125 0
0.03125 0.125 0
0.03125 0.09375 0
0.0625 0.09375 0
0.03125 0.125 0
0.0625 0.125 0
0.0625 0.0625 0
0.09375 0.0625 0
0.0625 0.09375 0
0.09375 0.09375 0
0.09375 0.0625 0
0.125 0.0625 0
0.09375 0.09375 0
0.125 0.09375 0
0.0625 0.09375 0
0.09375 0.09375 0
0.0625 0.125 0
0.09375 0.125 0
0.09375 0.09375 0
0.125 0.09375 0
0.09375 0.125 0
0.125 0.125 0
0.125 0 0
0.15625 0 0
0.125 0.03125 0
0.15625 0.03125 0
0.15625 0 0
0.1875 0 0
0.15625 0.03125 0
0.1875 0.03125 0
0.125 0.03125 0
0.15625 0.03125 0
0.125 0.0625 0
0.15625 0.0625 0
0.15625 0.03125 0
0.1875 0.03125 0
0.15625 0.0625 0
0.1875 0.0625 0
0.1875 0 0
0.21875 0 0
0.1875 0.03125 0
0.21875 0.03125 0
0.21875 0 0
0.25 0 0
0.21875 0.03125 0
0.25 0.03125 0
0.1875 0.03125 0
0.21875 0.03125 0
0.1875 0.0625 0
0.21875 0.0625 0
0.21875 0.03125 0
0.25 0.03125 0
0.21875 0.0625 0
0.25 0.0625 0
0.125 0.0625 0
0.15625 0.0625 0
0.125 0.09375 0
0.15625 0.09375 0
0.15625 0.0625 0
0.1875 0.0625 0
0.15625 0.09375 0
0.1875 0.09375 0
0.125 0.09375 0
0.15625 0.09375 0
0.125 0.125 0
0.15625 0.125 0
0.15625 0.09375 0
0.1875 0.09375 0
0.15625 0.125 0
0.1875 0.125 0
0.1875 0.0625 0
0.21875 0.0625 0
0.1875 0.09375 0
0.21875 0.09375 0
0.21875 0.0625 0
0.25 0.0625 0
0.21875 0.09375 0
0.25 0.09375 0
0.1875 0.09375 0
0.21875 0.09375 0
0.1875 0.125 0
0.21875 0.125 0
0.21875 0.09375 0
0.25 0.09375 0
0.21875 0.125 0
0.25 0.125 0
0 0.125 0
0.03125 0.125 0
0 0.15625 0
0.03125 0.15625 0
0.03125 0.125 0
0.0625 0.125 0
0.03125 0.15625 0
0.0625 0.15625 0
0 0.15625 0
0.03125 0.15625 0
0 0.1875 0
0.03125 0.1875 0
0.03125 0.15625 0
0.0625 0.15625 0
0.03125 0.1875 0
0.0625 0.1875 0
0.0625 0.125 0
0.09375 0.125 0
0.0625 0.15625 0
0.09375 0.15625 0
0.09375 0.125 0
0.125 0.125 0
0.09375 0.15625 0
0.125 0.15625 0
0.0625 0.15625 0
0.09375 0.15625 0
0.0625 0.1875 0
0.09375 0.1875 0
0.09375 0.15625 0
0.125 0.15625 0
0.09375 0.1875 0
0.125 0.1875 0
0 0.1875 0
0.03125 0.1875 0
0 0.21875 0
0.03125 0.21875 0
0.03125 0.1875 0
0.0625 0.1875 0
0.03125 0.21875 0
0.0625 0.21875 0
0 0.21875 0
0.03125 0.21875 0
0 0.25 0
0.03125 0.25 0
0.03125 0.21875 0
0.0625 0.21875 0
0.03125 0.25 0
0.0625 0.25 0
0.0625 0.1875 0
0.09375 0.1875 0
0.0625 0.21875 0
0.09375 0.21875 0
0.09375 0.1875 0
0.125 0.1875 0
0.09375 0.21875 0
0.125 0.21875 0
0.0625 0.21875 0
0.09375 0.21875 0
0.0625 0.25 0
0.09375 0.25 0
0.09375 0.21875 0
0.125 0.21875 0
0.09375 0.25 0
0.125 0.25 0
0.125 0.125 0
0.15625 0.125 0
0.125 0.15625 0
0.15625 0.15625 0
0.15625 0.125 0
0.1875 0.125 0
0.15625 0.15625 0
0.1875 0.15625 0
0.125 0.15625 0
0.15625 0.15625 0
0.125 0.1875 0
0.15625 0.1875 0
0.15625 0.15625 0
0.1875 0.15625 0
0.15625 0.1875 0
0.1875 0.1875 0
0.1875 0.125 0
0.21875 0.125 0
0.1875 0.15625 0
0.21875 0.15625 0
0.21875 0.125 0
0.25 0.125 0
0.21875 0.15625 0
0.25 0.15625 0
0.1875 0.15625 0
0.21875 0.15625 0
0.1875 0.1875 0
0.21875 0.1875 0
0.21875 0.15625 0
0.25 0.15625 0
0.21875 0.1875 0
0.25 0.1875 0
0.125 0.1875 0
0.15625 0.1875 0
0.125 0.21875 0
0.15625 0.21875 0
0.15625 0.1875 0
0.1875 0.1875 0
0.15625 0.21875 0
0.1875 0.21875 0
0.125 0.21875 0
0.15625 0.21875 0
0.125 0.25 0
0.15625 0.25 0
0.15625 0.21875 0
0.1875 0.21875 0
0.15625 0.25 0
0.1875 0.25 0
0.1875 0.1875 0
0.21875 0.1875 0
0.1875 0.21875 0
0.21875 0.21875 0
0.21875 0.1875 0
0.25 0.1875 0
0.21875 0.21875 0
0.25 0.21875 0
0.1875 0.21875 0
0.21875 0.21875 0
0.1875 0.25 0
0.21875 0.25 0
0.21875 0.21875 0
0.25 0.21875 0
0.21875 0.25 0
0.25 0.25 0
0.25 0 0
0.28125 0 0
0.25 0.03125 0
0.28125 0.03125 0
0.28125 0 0
0.3125 0 0
0.28125 0.03125 0
0.3125 0.03125 0
0.25 0.03125 0
0.28125 0.03125 0
0.25 0.0625 0
0.28125 0.0625 0
0.28125 0.03125 0
0.3125 0.03125 0
0.28125 0.0625 0
0.3125 0.0625 0
0.3125 0 0
0.34375 0 0
0.3125 0.03125 0
0.34375 0.03125 0
0.34375 0 0
0.375 0 0
0.34375 0.03125 0
0.375 0.03125 0
0.3125 0.03125 0
0.34375 0.03125 0
0.3125 0.0625 0
0.34375 0.0625 0
0.34375 0.03125 0
0.375 0.03125 0
0.34375 0.0625 0
0.375 0.0625 0
0.25 0.0625 0
0.28125 0.0625 0
0.25 0.09375 0
0.28125 0.09375 0
0.28125 0.0625 0
0.3125 0.0625 0
0.28125 0.09375 0
0.3125 0.09375 0
0.25 0.09375 0
0.28125 0.09375 0
0.25 0.125 0
0.28125 0.125 0
0.28125 0.09375 0
0.3125 0.09375 0
0.28125 0.125 0
0.3125 0.125 0
0.3125 0.0625 0
0.34375 0.0625 0
0.3125 0.09375 0
0.34375 0.09375 0
0.34375 0.0625 0
0.375 0.0625 0
0.34375 0.09375 0
0.375 0.09375 0
0.3125 0.09375 0
0.34375 0.09375 0
0.3125 0.125 0
0.34375 0.125 0
0.34375 0.09375 0
0.375 0.09375 0
0.34375 0.125 0
0.375 0.125 0
0.375 0 0
0.40625 0 0
0.375 0.03125 0
0.40625 0.03125 0
0.40625 0 0
0.4375 0 0
0.40625 0.03125 0
0.4375 0.03125 0
0.375 0.03125 0
0.40625 0.03125 0
0.375 0.0625 0
0.40625 0.0625 0
0.40625 0.03125 0
0.4375 0.03125 0
0.40625 0.0625 0
0.4375 0.0625 0
0.4375 0 0
0.46875 0 0
0.4375 0.03125 0
0.46875 0.03125 0
0.46875 0 0
0.5 0 0
0.46875 0.03125 0
0.5 0.03125 0
0.4375 0.03125 0
0.46875 0.03125 0
0.4375 0.0625 0
0.46875 0.0625 0
0.46875 0.03125 0
0.5 0.03125 0
0.46875 0.0625 0
0.5 0.0625 0
0.375 0.0625 0
0.40625 0.0625 0
0.375 0.09375 0
0.40625 0.09375 0
0.40625 0.0625 0
0.4375 0.0625 0
0.40625 0.09375 0
0.4375 0.09375 0
0.375 0.09375 0
0.40625 0.09375 0
0.375 0.125 0
0.40625 0.125 0
0.40625 0.09375 0
0.4375 0.09375 0
0.40625 0.125 0
0.4375 0.125 0
0.4375 0.0625 0
0.46875 0.0625 0
0.4375 0.09375 0
0.46875 0.09375 0
0.46875 0.0625 0
0.5 0.0625 0
0.46875 0.09375 0
0.5 0.09375 0
0.4375 0.09375 0
0.46875 0.09375 0
0.4375 0.125 0
0.46875 0.125 0
0.46875 0.09375 0
0.5 0.09375 0
0.46875 0.125 0
0.5 0.125 0
0.25 0.125 0
0.28125 0.125 0
0.25 0.15625 0
0.28125 0.15625 0
0.28125 0.125 0
0.3125 0.125 0
0.28125 0.15625 0
0.3125 0.15625 0
0.25 0.15625 0
0.28125 0.15625 0
0.25 0.1875 0
0.28125 0.1875 0
0.28125 0.15625 0
0.3125 0.15625 0
0.28125 0.1875 0
0.3125 0.1875 0
0.3125 0.125 0
0.34375 0.125 0
0.3125 0.15625 0
0.34375 0.15625 0
0.34375 0.125 0
0.375 0.125 0
0.34375 0.15625 0
0.375 0.15625 0
0.3125 0.15625 0
0.34375 0.15625 0
0.3125 0.1875 0
0.34375 0.1875 0
0.34375 0.15625 0
0.375 0.15625 0
0.34375 0.1875 0
0.375 0.1875 0
0.25 0.1875 0
0.28125 0.1875 0
0.25 0.21875 0
0.28125 0.21875 0
0.28125 0.1875 0
0.3125 0.1875 0
0.28125 0.21875 0
0.3125 0.21875 0
0.25 0.21875 0
0.28125 0.21875 0
0.25 0.25 0
0.28125 0.25 0
0.28125 0.21875 0
0.3125 0.21875 0
0.28125 0.25 0
0.3125 0.25 0
0.3125 0.1875 0
0.34375 0.1875 0
0.3125 0.21875 0
0.34375 0.21875 0
0.34375 0.1875 0
0.375 0.1875 0
0.34375 0.21875 0
0.375 0.21875 0
0.3125 0.21875 0
0.34375 0.21875 0
0.3125 0.25 0
0.34375 0.25 0
0.34375 0.21875 0
0.375 0.21875 0
0.34375 0.25 0
0.375 0.25 0
0.375 0.125 0
0.40625 0.125 0
0.375 0.15625 0
0.40625 0.15625 0
0.40625 0.125 0
0.4375 0.125 0
0.40625 0.15625 0
0.4375 0.15625 0
0.375 0.15625 0
0.40625 0.15625 0
0.375 0.1875 0
0.40625 0.1875 0
0.40625 0.15625 0
0.4375 0.15625 0
0.40625 0.1875 0
0.4375 0.1875 0
0.4375 0.125 0
0.46875 0.125 0
0.4375 0.15625 0
0.46875 0.15625 0
0.46875 0.125 0
0.5 0.125 0
0.46875 0.15625 0
0.5 0.15625 0
0.4375 0.15625 0
0.46875 0.15625 0
0.4375 0.1875 0
0.46875 0.1875 0
0.46875 0.15625 0
0.5 0.15625 0
0.46875 0.1875 0
0.5 0.1875 0
0.375 0.1875 0
0.40625 0.1875 0
0.375 0.21875 0
0.40625 0.21875 0
0.40625 0.1875 0
0.4375 0.1875 0
0.40625 0.21875 0
0.4375 0.21875 0
0.375 0.21875 0
0.40625 0.21875 0
0.375 0.25 0
0.40625 0.25 0
0.40625 0.21875 0
0.4375 0.21875 0
0.40625 0.25 0
0.4375 0.25 0
0.4375 0.1875 0
0.46875 0.1875 0
0.4375 0.21875 0
0.46875 0.21875 0
0.46875 0.1875 0
0.5 0.1875 0
0.46875 0.21875 0
0.5 0.21875 0
0.4375 0.21875 0
0.46875 0.21875 0
0.4375 0.25 0
0.46875 0.25 0
0.46875 0.21875 0
0.5 0.21875 0
0.46875 0.25 0
0.5 0.25 0
0 0.25 0
0.03125 0.25 0
0 0.28125 0
0.03125 0.28125 0
0.03125 0.25 0
0.0625 0.25 0
0.03125 0.28125 0
0.0625 0.28125 0
0 0.28125 0
0.03125 0.28125 0
0 0.3125 0
0.03125 0.3125 0
0.03125 0.28125 0
0.0625 0.28125 0
0.03125 0.3125 0
0.0625 0.3125 0
0.0625 0.25 0
0.09375 0.25 0
0.0625 0.28125 0
0.09375 0.28125 0
0.09375 0.25 0
0.125 0.25 0
0.09375 0.28125 0
0.125 0.28125 0
0.0625 0.28125 0
0.09375 0.28125 0
0.0625 0.3125 0
0.09375 0.3125 0
0.09375 0.28125 0
0.125 0.28125 0
0.09375 0.3125 0
0.125 0.3125 0
0 0.3125 0
0.03125 0.3125 0
0 0.34375 0
0.03125 0.34375 0
0.03125 0.3125 0
0.0625 0.3125 0
0.03125 0.34375 0
0.0625 0.34375 0
0 0.34375 0
0.03125 0.34375 0
0 0.375 0
0.03125 0.375 0
0.03125 0.34375 0
0.0625 0.34375 0
0.03125 0.375 0
0.0625 0.375 0
0.0625 0.3125 0
0.09375 0.3125 0
0.0625 0.34375 0
0.09375 0.34375 0
0.09375 0.3125 0
0.125 0.3125 0
0.09375 0.34375 0
0.125 0.34375 0
0.0625 0.34375 0
0.09375 0.34375 0
0.0625 0.375 0
0.09375 0.375 0
0.09375 0.34375 0
0.125 0.34375 0
0.09375 0.375 0
0.125 0.375 0
0.125 0.25 0
0.15625 0.25 0
0.125 0.28125 0
0.15625 0.28125 0
0.15625 0.25 0
0.1875 0.25 0
0.15625 0.28125 0
0.1875 0.28125 0
0.125 0.28125 0
0.15625 0.28125 0
0.125 0.3125 0
0.15625 0.3125 0
0.15625 0.28125 0
0.1875 0.28125 0
0.15625 0.3125 0
0.1875 0.3125 0
0.1875 0.25 0
0.21875 0.25 0
0.1875 0.28125 0
0.21875 0.28125 0
0.21875 0.25 0
0.25 0.25 0
0.21875 0.28125 0
0.25 0.28125 0
0.1875 0.28125 0
0.21875 0.28125 0
0.1875 0.3125 0
0.21875 0.3125 0
0.21875 0.28125 0
0.25 0.28125 0
0.21875 0.3125 0
0.25 0.3125 0
0.125 0.3125 0
0.15625 0.3125 0
0.125 0.34375 0
0.15625 0.34375 0
0.15625 0.3125 0
0.1875 0.3125 0
0.15625 0.34375 0
0.1875 0.34375 0
0.125 0.34375 0
[...]
POINT_DATA 4096
SCALARS u_x double 1
LOOKUP_TABLE default
1.69103e-05 1.55316e-05 -3.47348e-05 -9.04792e-05 1.55316e-05 2.03107e-05 -9.04792e-05 -0.000495914 -3.47348e-05 -9.04792e-05 -0.000155582 -0.000271182 -9.04792e-05 -0.000495914 -0.000271182 -0.00110843 2.03107e-05 1.33943e-05 -0.000495914 -0.0011843 1.33943e-05 1.0787e-06 -0.0011843 -0.00208154 -0.000495914 -0.0011843 -0.00110843 -0.00235736 -0.0011843 -0.00208154 -0.00235736 -0.00391953 -0.000155582 -0.000271182 -0.000262622 -0.000420761 -0.000271182 -0.00110843 -0.000420761 -0.00162407 -0.000262622 -0.000420761 -0.000311173 -0.000529692 -0.000420761 -0.00162407 -0.000529692 -0.00200505 -0.00110843 -0.00235736 -0.00162407 -0.00332254 -0.00235736 -0.00391953 -0.00332254 -0.00538802 -0.00162407 -0.00332254 -0.00200505 -0.00405091 -0.00332254 -0.00538802 -0.00405091 -0.00649903 1.0787e-06 -1.28336e-05 -0.00208154 -0.00309194 -1.28336e-05 -2.66098e-05 -0.00309194 -0.00414158 -0.00208154 -0.00309194 -0.00391953 -0.00565523 -0.00309194 -0.00414158 -0.00565523 -0.00745366 -2.66098e-05 -3.96088e-05 -0.00414158 -0.0051784 -3.96088e-05 -5.16344e-05 -0.0051784 -0.00616807 -0.00414158 -0.0051784 -0.00745366 -0.00923132 -0.0051784 -0.00616807 -0.00923132 -0.0109301 -0.00391953 -0.00565523 -0.00538802 -0.00765153 -0.00565523 -0.00745366 -0.00765153 -0.00998352 -0.00538802 -0.00765153 -0.00649903 -0.00915492 -0.00765153 -0.00998352 -0.00915492 -0.0118755 -0.00745366 -0.00923132 -0.00998352 -0.0122839 -0.00923132 -0.0109301 -0.0122839 -0.0144808 -0.00998352 -0.0122839 -0.0118755 -0.0145512 -0.0122839 -0.0144808 -0.0145512 -0.0171025 -0.000311173 -0.000529692 -0.000283011 -0.000612875 -0.000529692 -0.00200505 -0.000612875 -0.00227862 -0.000283011 -0.000612875 -0.000171586 -0.000686844 -0.000612875 -0.00227862 -0.000686844 -0.00248699 -0.00200505 -0.00405091 -0.00227862 -0.0045931 -0.00405091 -0.00649903 -0.0045931 -0.00733886 -0.00227862 -0.0045931 -0.00248699 -0.00502236 -0.0045931 -0.00733886 -0.00502236 -0.00801512 -0.000171586 -0.000686844 2.56947e-05 -0.000764475 -0.000686844 -0.00248699 -0.000764475 -0.00266772 2.56947e-05 -0.000764475 0.000310874 -0.000854786 -0.000764475 -0.00266772 -0.000854786 -0.00284872 -0.00248699 -0.00502236 -0.00266772 -0.00540609 -0.00502236 -0.00801512 -0.00540609 -0.00862606 -0.00266772 -0.00540609 -0.00284872 -0.0057962 -0.00540609 -0.00862606 -0.0057962 -0.00924826 -0.00649903 -0.00915492 -0.00733886 -0.0102998 -0.00915492 -0.0118755 -0.0102998 -0.0133194 -0.00733886 -0.0102998 -0.00801512 -0.0112328 -0.0102998 -0.0133194 -0.0112328 -0.0145045 -0.0118755 -0.0145512 -0.0133194 -0.0162808 -0.0145512 -0.0171025 -0.0162808 -0.0190995 -0.0133194 -0.0162808 -0.0145045 -0.0177059 -0.0162808 -0.0190995 -0.0177059 -0.0207486 -0.00801512 -0.0112328 -0.00862606 -0.0120839 -0.0112328 -0.0145045 -0.0120839 -0.0155931 -0.00862606 -0.0120839 -0.00924826 -0.012954 -0.0120839 -0.0155931 -0.012954 -0.0167098 -0.0145045 -0.0177059 -0.0155931 -0.0190216 -0.0177059 -0.0207486 -0.0190216 -0.0222762 -0.0155931 -0.0190216 -0.0167098 -0.0203748 -0.0190216 -0.0222762 -0.0203748 -0.0238509 -5.16344e-05 -6.2655e-05 -0.00616807 -0.00708798 -6.2655e-05 -7.26639e-05 -0.00708798 -0.00792246 -0.00616807 -0.00708798 -0.0109301 -0.0125099 -0.00708798 -0.00792246 -0.0125099 -0.0139424 -7.26639e-05 -8.16267e-05 -0.00792246 -0.00865963 -8.16267e-05 -8.94739e-05 -0.00865963 -0.00928968 -0.00792246 -0.00865963 -0.0139424 -0.0152061 -0.00865963 -0.00928968 -0.0152061 -0.0162836 -0.0109301 -0.0125099 -0.0144808 -0.016523 -0.0125099 -0.0139424 -0.016523 -0.0183736 -0.0144808 -0.016523 -0.0171025 -0.0194721 -0.016523 -0.0183736 -0.0194721 -0.0216176 -0.0139424 -0.0152061 -0.0183736 -0.0200043 -0.0152061 -0.0162836 -0.0200043 -0.0213922 -0.0183736 -0.0200043 -0.0216176 -0.0235067 -0.0200043 -0.0213922 -0.0235067 -0.025113 -8.94739e-05 -9.6111e-05 -0.00928968 -0.00980408 -9.6111e-05 -0.000101429 -0.00980408 -0.0101953 -0.00928968 -0.00980408 -0.0162836 -0.0171602 -0.00980408 -0.0101953 -0.0171602 -0.0178231 -0.000101429 -0.000105312 -0.0101953 -0.0104568 -0.000105312 -0.000107647 -0.0104568 -0.0105832 -0.0101953 -0.0104568 -0.0178231 -0.0182617 -0.0104568 -0.0105832 -0.0182617 -0.0184674 -0.0162836 -0.0171602 -0.0213922 -0.0225184 -0.0171602 -0.0178231 -0.0225184 -0.0233668 -0.0213922 -0.0225184 -0.025113 -0.0264148 -0.0225184 -0.0233668 -0.0264148 -0.0273938 -0.0178231 -0.0182617 -0.0233668 -0.0239242 -0.0182617 -0.0184674 -0.0239242 -0.0241798 -0.0233668 -0.0239242 -0.0273938 -0.0280348 -0.0239242 -0.0241798 -0.0280348 -0.0283261 -0.0171025 -0.0194721 -0.0190995 -0.0217148 -0.0194721 -0.0216176 -0.0217148 -0.0240813 -0.0190995 -0.0217148 -0.0207486 -0.0235691 -0.0217148 -0.0240813 -0.0235691 -0.0261205 -0.0216176 -0.0235067 -0.0240813 -0.0261641 -0.0235067 -0.025113 -0.0261641 -0.027935 -0.0240813 -0.0261641 -0.0261205 -0.0283662 -0.0261641 -0.027935 -0.0283662 -0.0302768 -0.0207486 -0.0235691 -0.0222762 -0.0252913 -0.0235691 -0.0261205 -0.0252913 -0.0280184 -0.0222762 -0.0252913 -0.0238509 -0.0270697 -0.0252913 -0.0280184 -0.0270697 -0.0299814 -0.0261205 -0.0283662 -0.0280184 -0.0304202 -0.0283662 -0.0302768 -0.0304202 -0.0324665 -0.0280184 -0.0304202 -0.0299814 -0.0325483 -0.0304202 -0.0324665 -0.0325483 -0.0347396 -0.025113 -0.0264148 -0.027935 -0.0293703 -0.0264148 -0.0273938 -0.0293703 -0.0304503 -0.027935 -0.0293703 -0.0302768 -0.0318277 -0.0293703 -0.0304503 -0.0318277 -0.0329979 -0.0273938 -0.0280348 -0.0304503 -0.0311585 -0.0280348 -0.0283261 -0.0311585 -0.0314821 -0.0304503 -0.0311585 -0.0329979 -0.03377 -0.0311585 -0.0314821 -0.03377 -0.0341299 -0.0302768 -0.0318277 -0.0324665 -0.0341319 -0.0318277 -0.0329979 -0.0341319 -0.0353947 -0.0324665 -0.0341319 -0.0347396 -0.0365295 -0.0341319 -0.0353947 -0.0365295 -0.0378956 -0.0329979 -0.03377 -0.0353947 -0.0362364 -0.03377 -0.0341299 -0.0362364 -0.0366415 -0.0353947 -0.0362364 -0.0378956 -0.0388185 -0.0362364 -0.0366415 -0.0388185 -0.0392811 0.000310874 -0.000854786 0.000687084 -0.000963825 -0.000854786 -0.00284872 -0.000963825 -0.00304887 0.000687084 -0.000963825 0.00115916 -0.00109581 -0.000963825 -0.00304887 -0.00109581 -0.00328062 -0.00284872 -0.0057962 -0.00304887 -0.00622905 -0.0057962 -0.00924826 -0.00622905 -0.00993626 -0.00304887 -0.00622905 -0.00328062 -0.00672943 -0.00622905 -0.00993626 -0.00672943 -0.0107278 0.00115916 -0.00109581 0.00173383 -0.00125417 -0.00109581 -0.00328062 -0.00125417 -0.00355285 0.00173383 -0.00125417 0.00241974 -0.00144225 -0.00125417 -0.00355285 -0.00144225 -0.00387323 -0.00328062 -0.00672943 -0.00355285 -0.00731551 -0.00672943 -0.0107278 -0.00731551 -0.0116508 -0.00355285 -0.00731551 -0.00387323 -0.00800305 -0.00731551 -0.0116508 -0.00800305 -0.0127291 -0.00924826 -0.012954 -0.00993626 -0.0139152 -0.012954 -0.0167098 -0.0139152 -0.017943 -0.00993626 -0.0139152 -0.0107278 -0.0150177 -0.0139152 -0.017943 -0.0150177 -0.0193541 -0.0167098 -0.0203748 -0.017943 -0.0218693 -0.0203748 -0.0238509 -0.0218693 -0.02559 -0.017943 -0.0218693 -0.0193541 -0.0235761 -0.0218693 -0.02559 -0.0235761 -0.027573 -0.0107278 -0.0150177 -0.0116508 -0.0162983 -0.0150177 -0.0193541 -0.0162983 -0.0209878 -0.0116508 -0.0162983 -0.0127291 -0.0177886 -0.0162983 -0.0209878 -0.0177886 -0.0228815 -0.0193541 -0.0235761 -0.0209878 -0.0255462 -0.0235761 -0.027573 -0.0255462 -0.0298558 -0.0209878 -0.0255462 -0.0228815 -0.0278213 -0.0255462 -0.0298558 -0.0278213 -0.0324825 0.00241974 -0.00144225 0.00322758 -0.00166394 -0.00144225 -0.00387323 -0.00166394 -0.00425004 0.00322758 -0.00166394 0.00417023 -0.00192407 -0.00166394 -0.00425004 -0.00192407 -0.00469362 -0.00387323 -0.00800305 -0.00425004 -0.00880884 -0.00800305 -0.0127291 -0.00880884 -0.0139877 -0.00425004 -0.00880884 -0.00469362 -0.00975344 -0.00880884 -0.0139877 -0.00975344 -0.0154566 0.00417023 -0.00192407 0.00526308 -0.00222894 -0.00192407 -0.00469362 -0.00222894 -0.00521784 0.00526308 -0.00222894 0.00652451 -0.00258694 -0.00222894 -0.00521784 -0.00258694 -0.00584184 -0.00469362 -0.00975344 -0.00521784 -0.0108638 -0.00975344 -0.0154566 -0.0108638 -0.0171745 -0.00521784 -0.0108638 -0.00584184 -0.0121763 -0.0108638 -0.0171745 -0.0121763 -0.0191927 -0.0127291 -0.0177886 -0.0139877 -0.0195206 -0.0177886 -0.0228815 -0.0195206 -0.0250725 -0.0139877 -0.0195206 -0.0154566 -0.0215319 -0.0195206 -0.0250725 -0.0215319 -0.0276033 -0.0228815 -0.0278213 -0.0250725 -0.0304416 -0.0278213 -0.0324825 -0.0304416 -0.0354944 -0.0250725 -0.0304416 -0.0276033 -0.0334519 -0.0304416 -0.0354944 -0.0334519 -0.0389361 -0.0154566 -0.0215319 -0.0171745 -0.0238701 -0.0215319 -0.0276033 -0.0238701 -0.0305267 -0.0171745 -0.0238701 -0.0191927 -0.0265972 -0.0238701 -0.0305267 -0.0265972 -0.0339096 -0.0276033 -0.0334519 -0.0305267 -0.0369061 -0.0334519 -0.0389361 -0.0369061 -0.0428592 -0.0305267 -0.0369061 -0.0339096 -0.0408711 -0.0369061 -0.0428592 -0.0408711 -0.0473259 -0.0238509 -0.0270697 -0.02559 -0.0290339 -0.0270697 -0.0299814 -0.0290339 -0.0321501 -0.02559 -0.0290339 -0.027573 -0.0312706 -0.0290339 -0.0321501 -0.0312706 -0.0346169 -0.0299814 -0.0325483 -0.0321501 -0.0349003 -0.0325483 -0.0347396 -0.0349003 -0.0372539 -0.0321501 -0.0349003 -0.0346169 -0.0375738 -0.0349003 -0.0372539 -0.0375738 -0.0401109 -0.027573 -0.0312706 -0.0298558 -0.0338391 -0.0312706 -0.0346169 -0.0338391 -0.0374439 -0.0298558 -0.0338391 -0.0324825 -0.036785 -0.0338391 -0.0374439 -0.036785 -0.0406768 -0.0346169 -0.0375738 -0.0374439 -0.0406325 -0.0375738 -0.0401109 -0.0406325 -0.0433761 -0.0374439 -0.0406325 -0.0406768 -0.0441221 -0.0406325 -0.0433761 -0.0441221 -0.0470945 -0.0347396 -0.0365295 -0.0372539 -0.0391848 -0.0365295 -0.0378956 -0.0391848 -0.0406702 -0.0372539 -0.0391848 -0.0401109 -0.0422027 -0.0391848 -0.0406702 -0.0422027 -0.0438264 -0.0378956 -0.0388185 -0.0406702 -0.0416898 -0.0388185 -0.0392811 -0.0416898 -0.0422247 -0.0406702 -0.0416898 -0.0438264 -0.0449608 -0.0416898 -0.0422247 -0.0449608 -0.0455855 -0.0401109 -0.0422027 -0.0433761 -0.0456502 -0.0422027 -0.0438264 -0.0456502 -0.0474327 -0.0433761 -0.0456502 -0.0470945 -0.0495721 -0.0456502 -0.0474327 -0.0495721 -0.0515346 -0.0438264 -0.0449608 -0.0474327 -0.0487022 -0.0449608 -0.0455855 -0.0487022 -0.0494368 -0.0474327 -0.0487022 -0.0515346 -0.0529611 -0.0487022 -0.0494368 -0.0529611 -0.0538284 -0.0324825 -0.036785 -0.0354944 -0.040149 -0.036785 -0.0406768 -0.040149 -0.0443547 -0.0354944 -0.040149 -0.0389361 -0.0439731 -0.040149 -0.0443547 -0.0439731 -0.0485158 -0.0406768 -0.0441221 -0.0443547 -0.0480793 -0.0441221 -0.0470945 -0.0480793 -0.0513007 -0.0443547 -0.0480793 -0.0485158 -0.052538 -0.0480793 -0.0513007 -0.052538 -0.0560244 -0.0389361 -0.0439731 -0.0428592 -0.0483043 -0.0439731 -0.0485158 -0.0483043 -0.0532009 -0.0428592 -0.0483043 -0.0473259 -0.0531971 -0.0483043 -0.0532009 -0.0531971 -0.0584547 -0.0485158 -0.052538 -0.0532009 -0.0575319 -0.052538 -0.0560244 -0.0575319 -0.0612924 -0.0532009 -0.0575319 -0.0584547 -0.0630951 -0.0575319 -0.0612924 -0.0630951 -0.0671283 -0.0470945 -0.0495721 -0.0513007 -0.0540014 -0.0495721 -0.0515346 -0.0540014 -0.0561645 -0.0513007 -0.0540014 -0.0560244 -0.0589643 -0.0540014 -0.0561645 -0.0589643 -0.0613465 -0.0515346 -0.0529611 -0.0561645 -0.0577708 -0.0529611 -0.0538284 -0.0577708 -0.0587972 -0.0561645 -0.0577708 -0.0613465 -0.0631558 -0.0577708 -0.0587972 -0.0631558 -0.0643702 -0.0560244 -0.0589643 -0.0612924 -0.0644816 -0.0589643 -0.0613465 -0.0644816 -0.0670974 -0.0612924 -0.0644816 -0.0671283 -0.070568 -0.0644816 -0.0670974 -0.070568 -0.0734249 -0.0613465 -0.0631558 -0.0670974 -0.0691314 -0.0631558 -0.0643702 -0.0691314 -0.070565 -0.0670974 -0.0691314 -0.0734249 -0.0757012 -0.0691314 -0.070565 -0.0757012 -0.0773852 -0.000107647 -0.000108333 -0.0105832 -0.0105705 -0.000108333 -0.000107284 -0.0105705 -0.010416 -0.0105832 -0.0105705 -0.0184674 -0.0184337 -0.0105705 -0.010416 -0.0184337 -0.0181571 -0.000107284 -0.000104435 -0.010416 -0.0101187 -0.000104435 -9.97418e-05 -0.0101187 -0.00967962 -0.010416 -0.0101187 -0.0181571 -0.0176364 -0.0101187 -0.00967962 -0.0176364 -0.0168741 -0.0184674 -0.0184337 -0.0241798 -0.0241261 -0.0184337 -0.0181571 -0.0241261 -0.0237588 -0.0241798 -0.0241261 -0.0283261 -0.0282591 -0.0241261 -0.0237588 -0.0282591 -0.0278291 -0.0181571 -0.0176364 -0.0237588 -0.0230773 -0.0176364 -0.0168741 -0.0230773 -0.0220849 -0.0237588 -0.0230773 -0.0278291 -0.0270354 -0.0230773 -0.0220849 -0.0270354 -0.025882 -9.97418e-05 -9.31855e-05 -0.00967962 -0.00910176 -9.31855e-05 -8.47741e-05 -0.00910176 -0.0083906 -0.00967962 -0.00910176 -0.0168741 -0.0158759 -0.00910176 -0.0083906 -0.0158759 -0.0146521 -8.47741e-05 -7.45359e-05 -0.0083906 -0.00755472 -7.45359e-05 -6.2528e-05 -0.00755472 -0.00660683 -0.0083906 -0.00755472 -0.0146521 -0.0132183 -0.00755472 -0.00660683 -0.0132183 -0.0115972 -0.0168741 -0.0158759 -0.0220849 -0.0207898 -0.0158759 -0.0146521 -0.0207898 -0.0192058 -0.0220849 -0.0207898 -0.025882 -0.0243783 -0.0207898 -0.0192058 -0.0243783 -0.0225401 -0.0146521 -0.0132183 -0.0192058 -0.0173533 -0.0132183 -0.0115972 -0.0173533 -0.0152624 -0.0192058 -0.0173533 -0.0225401 -0.0203914 -0.0173533 -0.0152624 -0.0203914 -0.0179664 -0.0283261 -0.0282591 -0.0314821 -0.0314116 -0.0282591 -0.0278291 -0.0314116 -0.0309414 -0.0314821 -0.0314116 -0.0341299 -0.034067 -0.0314116 -0.0309414 -0.034067 -0.0335744 -0.0278291 -0.0270354 -0.0309414 -0.0300705 -0.0270354 -0.025882 -0.0300705 -0.0288026 -0.0309414 -0.0300705 -0.0335744 -0.0326498 -0.0300705 -0.0288026 -0.0326498 -0.031296 -0.0341299 -0.034067 -0.0366415 -0.0365979 -0.034067 -0.0335744 -0.0365979 -0.0360968 -0.0366415 -0.0365979 -0.0392811 -0.0392692 -0.0365979 -0.0360968 -0.0392692 -0.0387717 -0.0335744 -0.0326498 -0.0360968 -0.035134 -0.0326498 -0.031296 -0.035134 -0.03371 -0.0360968 -0.035134 -0.0387717 -0.0377812 -0.035134 -0.03371 -0.0377812 -0.036295 -0.025882 -0.0243783 -0.0288026 -0.0271473 -0.0243783 -0.0225401 -0.0271473 -0.0251214 -0.0288026 -0.0271473 -0.031296 -0.0295217 -0.0271473 -0.0251214 -0.0295217 -0.0273434 -0.0225401 -0.0203914 -0.0251214 -0.0227504 -0.0203914 -0.0179664 -0.0227504 -0.0200712 -0.0251214 -0.0227504 -0.0273434 -0.0247871 -0.0227504 -0.0200712 -0.0247871 -0.0218913 -0.031296 -0.0295217 -0.03371 -0.0318318 -0.0295217 -0.0273434 -0.0318318 -0.0295145 -0.03371 -0.0318318 -0.036295 -0.0343173 -0.0318318 -0.0295145 -0.0343173 -0.0318604 -0.0273434 -0.0247871 -0.0295145 -0.0267836 -0.0247871 -0.0218913 -0.0267836 -0.0236785 -0.0295145 -0.0267836 -0.0318604 -0.0289484 -0.0267836 -0.0236785 -0.0289484 -0.0256212 -6.2528e-05 -4.88391e-05 -0.00660683 -0.00556597 -4.88391e-05 -3.37596e-05 -0.00556597 -0.00446012 -0.00660683 -0.00556597 -0.0115972 -0.00982249 -0.00556597 -0.00446012 -0.00982249 -0.0079422 -3.37596e-05 -1.73895e-05 -0.00446012 -0.00333397 -1.73895e-05 -2.46809e-06 -0.00333397 -0.00223651 -0.00446012 -0.00333397 -0.0079422 -0.00602867 -0.00333397 -0.00223651 -0.00602867 -0.0041648 -0.0115972 -0.00982249 -0.0152624 -0.0129761 -0.00982249 -0.0079422 -0.0129761 -0.0105552 -0.0152624 -0.0129761 -0.0179664 -0.0153143 -0.0129761 -0.0105552 -0.0153143 -0.0125033 -0.0079422 -0.00602867 -0.0105552 -0.00808792 -0.00602867 -0.0041648 -0.00808792 -0.00567621 -0.0105552 -0.00808792 -0.0125033 -0.0096311 -0.00808792 -0.00567621 -0.0096311 -0.00681164 -2.46809e-06 1.14381e-05 -0.00223651 -0.00131625 1.14381e-05 5.89269e-05 -0.00131625 -0.000294148 -0.00223651 -0.00131625 -0.0041648 -0.00255091 -0.00131625 -0.000294148 -0.00255091 -0.000910038 5.89269e-05 -1.8239e-05 -0.000294148 -0.00123389 -1.8239e-05 0.00970847 -0.00123389 0.00862043 -0.000294148 -0.00123389 -0.000910038 -0.00147775 -0.00123389 0.00862043 -0.00147775 0.00900428 -0.0041648 -0.00255091 -0.00567621 -0.00354288 -0.00255091 -0.000910038 -0.00354288 -0.00143493 -0.00567621 -0.00354288 -0.00681164 -0.00428328 -0.00354288 -0.00143493 -0.00428328 -0.00182042 -0.000910038 -0.00147775 -0.00143493 -0.00165594 -0.00147775 0.00900428 -0.00165594 0.00886763 -0.00143493 -0.00165594 -0.00182042 -0.00176519 -0.00165594 0.00886763 -0.00176519 0.00880816 -0.0179664 -0.0153143 -0.0200712 -0.0171368 -0.0153143 -0.0125033 -0.0171368 -0.0140208 -0.0200712 -0.0171368 -0.0218913 -0.0187119 -0.0171368 -0.0140208 -0.0187119 -0.0153274 -0.0125033 -0.0096311 -0.0140208 -0.010828 -0.0096311 -0.00681164 -0.010828 -0.00768279 -0.0140208 -0.010828 -0.0153274 -0.0118502 -0.010828 -0.00768279 -0.0118502 -0.00841626 -0.0218913 -0.0187119 -0.0236785 -0.020258 -0.0187119 -0.0153274 -0.020258 -0.0166061 -0.0236785 -0.020258 -0.0256212 -0.0219406 -0.020258 -0.0166061 -0.0219406 -0.0179973 -0.0153274 -0.0118502 -0.0166061 -0.0128446 -0.0118502 -0.00841626 -0.0128446 -0.00912299 -0.0166061 -0.0128446 -0.0179973 -0.0139247 -0.0128446 -0.00912299 -0.0139247 -0.00988873 -0.00681164 -0.00428328 -0.00768279 -0.00483969 -0.00428328 -0.00182042 -0.00483969 -0.00209689 -0.00768279 -0.00483969 -0.00841626 -0.00529874 -0.00483969 -0.00209689 -0.00529874 -0.00231607 -0.00182042 -0.00176519 -0.00209689 -0.00184595 -0.00176519 0.00880816 -0.00184595 0.00883357 -0.00209689 -0.00184595 -0.00231607 -0.00192037 -0.00184595 0.00883357 -0.00192037 0.00893599 -0.00841626 -0.00529874 -0.00912299 -0.00573632 -0.00529874 -0.00231607 -0.00573632 -0.00251984 -0.00912299 -0.00573632 -0.00988873 -0.0062099 -0.00573632 -0.00251984 -0.0062099 -0.00273856 -0.00231607 -0.00192037 -0.00251984 -0.00200122 -0.00192037 0.00893599 -0.00200122 0.00911831 -0.00251984 -0.00200122 -0.00273856 -0.00209795 -0.00200122 0.00911831 -0.00209795 0.00938074 -0.0392811 -0.0392692 -0.0422247 -0.0422585 -0.0392692 -0.0387717 -0.0422585 -0.0417765 -0.0422247 -0.0422585 -0.0455855 -0.045681 -0.0422585 -0.0417765 -0.045681 -0.0452287 -0.0387717 -0.0377812 -0.0417765 -0.0407674 -0.0377812 -0.036295 -0.0407674 -0.0392242 -0.0417765 -0.0407674 -0.0452287 -0.044212 -0.0407674 -0.0392242 -0.044212 -0.0426177 -0.0455855 -0.045681 -0.0494368 -0.0496136 -0.045681 -0.0452287 -0.0496136 -0.0492092 -0.0494368 -0.0496136 -0.0538284 -0.0541107 -0.0496136 -0.0492092 -0.0541107 -0.0537787 -0.0452287 -0.044212 -0.0492092 -0.0482004 -0.044212 -0.0426177 -0.0482004 -0.0465658 -0.0492092 -0.0482004 -0.0537787 -0.0528007 -0.0482004 -0.0465658 -0.0528007 -0.0511449 -0.036295 -0.0343173 -0.0392242 -0.0371462 -0.0343173 -0.0318604 -0.0371462 -0.0345419 -0.0392242 -0.0371462 -0.0426177 -0.0404387 -0.0371462 -0.0345419 -0.0404387 -0.0376774 -0.0318604 -0.0289484 -0.0345419 -0.0314327 -0.0289484 -0.0256212 -0.0314327 -0.0278581 -0.0345419 -0.0314327 -0.0376774 -0.0343507 -0.0314327 -0.0278581 -0.0343507 -0.0304966 -0.0426177 -0.0404387 -0.0465658 -0.0442892 -0.0404387 -0.0376774 -0.0442892 -0.0413641 -0.0465658 -0.0442892 -0.0511449 -0.0487826 -0.0442892 -0.0413641 -0.0487826 -0.0456943 -0.0376774 -0.0343507 -0.0413641 -0.0378001 -0.0343507 -0.0304966 -0.0378001 -0.0336315 -0.0413641 -0.0378001 -0.0456943 -0.0418782 -0.0378001 -0.0336315 -0.0418782 -0.0373614 -0.0538284 -0.0541107 -0.0587972 -0.0592145 -0.0541107 -0.0537787 -0.0592145 -0.0589872 -0.0587972 -0.0592145 -0.0643702 -0.0649584 -0.0592145 -0.0589872 -0.0649584 -0.064878 -0.0537787 -0.0528007 -0.0589872 -0.0580736 -0.0528007 -0.0511449 -0.0580736 -0.056428 -0.0589872 -0.0580736 -0.064878 -0.0640759 -0.0580736 -0.056428 -0.0640759 -0.0624893 -0.0643702 -0.0649584 -0.070565 -0.0713661 -0.0649584 -0.064878 -0.0713661 -0.0714865 -0.070565 -0.0713661 -0.0773852 -0.0784472 -0.0713661 -0.0714865 -0.0784472 -0.0788344 -0.064878 -0.0640759 -0.0714865 -0.0708601 -0.0640759 -0.0624893 -0.0708601 -0.0694038 -0.0714865 -0.0708601 -0.0788344 -0.0784681 -0.0708601 -0.0694038 -0.0784681 -0.0772423 -0.0511449 -0.0487826 -0.056428 -0.0540052 -0.0487826 -0.0456943 -0.0540052 -0.0507672 -0.056428 -0.0540052 -0.0624893 -0.0600508 -0.0540052 -0.0507672 -0.0600508 -0.0566965 -0.0456943 -0.0418782 -0.0507672 -0.0466946 -0.0418782 -0.0373614 -0.0466946 -0.0418013 -0.0507672 -0.0466946 -0.0566965 -0.0523806 -0.0466946 -0.0418013 -0.0523806 -0.0470949 -0.0624893 -0.0600508 -0.0694038 -0.0670217 -0.0600508 -0.0566965 -0.0670217 -0.0636148 -0.0694038 -0