# vtk DataFile Version 3.0
#This file was generated by the deal.II library on 2026/1/5 at 14:19:34
ASCII
DATASET UNSTRUCTURED_GRID

POINTS 4096 double
0 0 0
0.03125 0 0
0 0.03125 0
0.03125 0.03125 0
0.03125 0 0
0.0625 0 0
0.03125 0.03125 0
0.0625 0.03125 0
0 0.03125 0
0.03125 0.03125 0
0 0.0625 0
0.03125 0.0625 0
0.03125 0.03125 0
0.0625 0.03125 0
0.03125 0.0625 0
0.0625 0.0625 0
0.0625 0 0
0.09375 0 0
0.0625 0.03125 0
0.09375 0.03125 0
0.09375 0 0
0.125 0 0
0.09375 0.03125 0
0.125 0.03125 0
0.0625 0.03125 0
0.09375 0.03125 0
0.0625 0.0625 0
0.09375 0.0625 0
0.09375 0.03125 0
0.125 0.03125 0
0.09375 0.0625 0
0.125 0.0625 0
0 0.0625 0
0.03125 0.0625 0
0 0.09375 0
0.03125 0.09375 0
0.03125 0.0625 0
0.0625 0.0625 0
0.03125 0.09375 0
0.0625 0.09375 0
0 0.09375 0
0.03125 0.09375 0
0 0.125 0
0.03125 0.125 0
0.03125 0.09375 0
0.0625 0.09375 0
0.03125 0.125 0
0.0625 0.125 0
0.0625 0.0625 0
0.09375 0.0625 0
0.0625 0.09375 0
0.09375 0.09375 0
0.09375 0.0625 0
0.125 0.0625 0
0.09375 0.09375 0
0.125 0.09375 0
0.0625 0.09375 0
0.09375 0.09375 0
0.0625 0.125 0
0.09375 0.125 0
0.09375 0.09375 0
0.125 0.09375 0
0.09375 0.125 0
0.125 0.125 0
0.125 0 0
0.15625 0 0
0.125 0.03125 0
0.15625 0.03125 0
0.15625 0 0
0.1875 0 0
0.15625 0.03125 0
0.1875 0.03125 0
0.125 0.03125 0
0.15625 0.03125 0
0.125 0.0625 0
0.15625 0.0625 0
0.15625 0.03125 0
0.1875 0.03125 0
0.15625 0.0625 0
0.1875 0.0625 0
0.1875 0 0
0.21875 0 0
0.1875 0.03125 0
0.21875 0.03125 0
0.21875 0 0
0.25 0 0
0.21875 0.03125 0
0.25 0.03125 0
0.1875 0.03125 0
0.21875 0.03125 0
0.1875 0.0625 0
0.21875 0.0625 0
0.21875 0.03125 0
0.25 0.03125 0
0.21875 0.0625 0
0.25 0.0625 0
0.125 0.0625 0
0.15625 0.0625 0
0.125 0.09375 0
0.15625 0.09375 0
0.15625 0.0625 0
0.1875 0.0625 0
0.15625 0.09375 0
0.1875 0.09375 0
0.125 0.09375 0
0.15625 0.09375 0
0.125 0.125 0
0.15625 0.125 0
0.15625 0.09375 0
0.1875 0.09375 0
0.15625 0.125 0
0.1875 0.125 0
0.1875 0.0625 0
0.21875 0.0625 0
0.1875 0.09375 0
0.21875 0.09375 0
0.21875 0.0625 0
0.25 0.0625 0
0.21875 0.09375 0
0.25 0.09375 0
0.1875 0.09375 0
0.21875 0.09375 0
0.1875 0.125 0
0.21875 0.125 0
0.21875 0.09375 0
0.25 0.09375 0
0.21875 0.125 0
0.25 0.125 0
0 0.125 0
0.03125 0.125 0
0 0.15625 0
0.03125 0.15625 0
0.03125 0.125 0
0.0625 0.125 0
0.03125 0.15625 0
0.0625 0.15625 0
0 0.15625 0
0.03125 0.15625 0
0 0.1875 0
0.03125 0.1875 0
0.03125 0.15625 0
0.0625 0.15625 0
0.03125 0.1875 0
0.0625 0.1875 0
0.0625 0.125 0
0.09375 0.125 0
0.0625 0.15625 0
0.09375 0.15625 0
0.09375 0.125 0
0.125 0.125 0
0.09375 0.15625 0
0.125 0.15625 0
0.0625 0.15625 0
0.09375 0.15625 0
0.0625 0.1875 0
0.09375 0.1875 0
0.09375 0.15625 0
0.125 0.15625 0
0.09375 0.1875 0
0.125 0.1875 0
0 0.1875 0
0.03125 0.1875 0
0 0.21875 0
0.03125 0.21875 0
0.03125 0.1875 0
0.0625 0.1875 0
0.03125 0.21875 0
0.0625 0.21875 0
0 0.21875 0
0.03125 0.21875 0
0 0.25 0
0.03125 0.25 0
0.03125 0.21875 0
0.0625 0.21875 0
0.03125 0.25 0
0.0625 0.25 0
0.0625 0.1875 0
0.09375 0.1875 0
0.0625 0.21875 0
0.09375 0.21875 0
0.09375 0.1875 0
0.125 0.1875 0
0.09375 0.21875 0
0.125 0.21875 0
0.0625 0.21875 0
0.09375 0.21875 0
0.0625 0.25 0
0.09375 0.25 0
0.09375 0.21875 0
0.125 0.21875 0
0.09375 0.25 0
0.125 0.25 0
0.125 0.125 0
0.15625 0.125 0
0.125 0.15625 0
0.15625 0.15625 0
0.15625 0.125 0
0.1875 0.125 0
0.15625 0.15625 0
0.1875 0.15625 0
0.125 0.15625 0
0.15625 0.15625 0
0.125 0.1875 0
0.15625 0.1875 0
0.15625 0.15625 0
0.1875 0.15625 0
0.15625 0.1875 0
0.1875 0.1875 0
0.1875 0.125 0
0.21875 0.125 0
0.1875 0.15625 0
0.21875 0.15625 0
0.21875 0.125 0
0.25 0.125 0
0.21875 0.15625 0
0.25 0.15625 0
0.1875 0.15625 0
0.21875 0.15625 0
0.1875 0.1875 0
0.21875 0.1875 0
0.21875 0.15625 0
0.25 0.15625 0
0.21875 0.1875 0
0.25 0.1875 0
0.125 0.1875 0
0.15625 0.1875 0
0.125 0.21875 0
0.15625 0.21875 0
0.15625 0.1875 0
0.1875 0.1875 0
0.15625 0.21875 0
0.1875 0.21875 0
0.125 0.21875 0
0.15625 0.21875 0
0.125 0.25 0
0.15625 0.25 0
0.15625 0.21875 0
0.1875 0.21875 0
0.15625 0.25 0
0.1875 0.25 0
0.1875 0.1875 0
0.21875 0.1875 0
0.1875 0.21875 0
0.21875 0.21875 0
0.21875 0.1875 0
0.25 0.1875 0
0.21875 0.21875 0
0.25 0.21875 0
0.1875 0.21875 0
0.21875 0.21875 0
0.1875 0.25 0
0.21875 0.25 0
0.21875 0.21875 0
0.25 0.21875 0
0.21875 0.25 0
0.25 0.25 0
0.25 0 0
0.28125 0 0
0.25 0.03125 0
0.28125 0.03125 0
0.28125 0 0
0.3125 0 0
0.28125 0.03125 0
0.3125 0.03125 0
0.25 0.03125 0
0.28125 0.03125 0
0.25 0.0625 0
0.28125 0.0625 0
0.28125 0.03125 0
0.3125 0.03125 0
0.28125 0.0625 0
0.3125 0.0625 0
0.3125 0 0
0.34375 0 0
0.3125 0.03125 0
0.34375 0.03125 0
0.34375 0 0
0.375 0 0
0.34375 0.03125 0
0.375 0.03125 0
0.3125 0.03125 0
0.34375 0.03125 0
0.3125 0.0625 0
0.34375 0.0625 0
0.34375 0.03125 0
0.375 0.03125 0
0.34375 0.0625 0
0.375 0.0625 0
0.25 0.0625 0
0.28125 0.0625 0
0.25 0.09375 0
0.28125 0.09375 0
0.28125 0.0625 0
0.3125 0.0625 0
0.28125 0.09375 0
0.3125 0.09375 0
0.25 0.09375 0
0.28125 0.09375 0
0.25 0.125 0
0.28125 0.125 0
0.28125 0.09375 0
0.3125 0.09375 0
0.28125 0.125 0
0.3125 0.125 0
0.3125 0.0625 0
0.34375 0.0625 0
0.3125 0.09375 0
0.34375 0.09375 0
0.34375 0.0625 0
0.375 0.0625 0
0.34375 0.09375 0
0.375 0.09375 0
0.3125 0.09375 0
0.34375 0.09375 0
0.3125 0.125 0
0.34375 0.125 0
0.34375 0.09375 0
0.375 0.09375 0
0.34375 0.125 0
0.375 0.125 0
0.375 0 0
0.40625 0 0
0.375 0.03125 0
0.40625 0.03125 0
0.40625 0 0
0.4375 0 0
0.40625 0.03125 0
0.4375 0.03125 0
0.375 0.03125 0
0.40625 0.03125 0
0.375 0.0625 0
0.40625 0.0625 0
0.40625 0.03125 0
0.4375 0.03125 0
0.40625 0.0625 0
0.4375 0.0625 0
0.4375 0 0
0.46875 0 0
0.4375 0.03125 0
0.46875 0.03125 0
0.46875 0 0
0.5 0 0
0.46875 0.03125 0
0.5 0.03125 0
0.4375 0.03125 0
0.46875 0.03125 0
0.4375 0.0625 0
0.46875 0.0625 0
0.46875 0.03125 0
0.5 0.03125 0
0.46875 0.0625 0
0.5 0.0625 0
0.375 0.0625 0
0.40625 0.0625 0
0.375 0.09375 0
0.40625 0.09375 0
0.40625 0.0625 0
0.4375 0.0625 0
0.40625 0.09375 0
0.4375 0.09375 0
0.375 0.09375 0
0.40625 0.09375 0
0.375 0.125 0
0.40625 0.125 0
0.40625 0.09375 0
0.4375 0.09375 0
0.40625 0.125 0
0.4375 0.125 0
0.4375 0.0625 0
0.46875 0.0625 0
0.4375 0.09375 0
0.46875 0.09375 0
0.46875 0.0625 0
0.5 0.0625 0
0.46875 0.09375 0
0.5 0.09375 0
0.4375 0.09375 0
0.46875 0.09375 0
0.4375 0.125 0
0.46875 0.125 0
0.46875 0.09375 0
0.5 0.09375 0
0.46875 0.125 0
0.5 0.125 0
0.25 0.125 0
0.28125 0.125 0
0.25 0.15625 0
0.28125 0.15625 0
0.28125 0.125 0
0.3125 0.125 0
0.28125 0.15625 0
0.3125 0.15625 0
0.25 0.15625 0
0.28125 0.15625 0
0.25 0.1875 0
0.28125 0.1875 0
0.28125 0.15625 0
0.3125 0.15625 0
0.28125 0.1875 0
0.3125 0.1875 0
0.3125 0.125 0
0.34375 0.125 0
0.3125 0.15625 0
0.34375 0.15625 0
0.34375 0.125 0
0.375 0.125 0
0.34375 0.15625 0
0.375 0.15625 0
0.3125 0.15625 0
0.34375 0.15625 0
0.3125 0.1875 0
0.34375 0.1875 0
0.34375 0.15625 0
0.375 0.15625 0
0.34375 0.1875 0
0.375 0.1875 0
0.25 0.1875 0
0.28125 0.1875 0
0.25 0.21875 0
0.28125 0.21875 0
0.28125 0.1875 0
0.3125 0.1875 0
0.28125 0.21875 0
0.3125 0.21875 0
0.25 0.21875 0
0.28125 0.21875 0
0.25 0.25 0
0.28125 0.25 0
0.28125 0.21875 0
0.3125 0.21875 0
0.28125 0.25 0
0.3125 0.25 0
0.3125 0.1875 0
0.34375 0.1875 0
0.3125 0.21875 0
0.34375 0.21875 0
0.34375 0.1875 0
0.375 0.1875 0
0.34375 0.21875 0
0.375 0.21875 0
0.3125 0.21875 0
0.34375 0.21875 0
0.3125 0.25 0
0.34375 0.25 0
0.34375 0.21875 0
0.375 0.21875 0
0.34375 0.25 0
0.375 0.25 0
0.375 0.125 0
0.40625 0.125 0
0.375 0.15625 0
0.40625 0.15625 0
0.40625 0.125 0
0.4375 0.125 0
0.40625 0.15625 0
0.4375 0.15625 0
0.375 0.15625 0
0.40625 0.15625 0
0.375 0.1875 0
0.40625 0.1875 0
0.40625 0.15625 0
0.4375 0.15625 0
0.40625 0.1875 0
0.4375 0.1875 0
0.4375 0.125 0
0.46875 0.125 0
0.4375 0.15625 0
0.46875 0.15625 0
0.46875 0.125 0
0.5 0.125 0
0.46875 0.15625 0
0.5 0.15625 0
0.4375 0.15625 0
0.46875 0.15625 0
0.4375 0.1875 0
0.46875 0.1875 0
0.46875 0.15625 0
0.5 0.15625 0
0.46875 0.1875 0
0.5 0.1875 0
0.375 0.1875 0
0.40625 0.1875 0
0.375 0.21875 0
0.40625 0.21875 0
0.40625 0.1875 0
0.4375 0.1875 0
0.40625 0.21875 0
0.4375 0.21875 0
0.375 0.21875 0
0.40625 0.21875 0
0.375 0.25 0
0.40625 0.25 0
0.40625 0.21875 0
0.4375 0.21875 0
0.40625 0.25 0
0.4375 0.25 0
0.4375 0.1875 0
0.46875 0.1875 0
0.4375 0.21875 0
0.46875 0.21875 0
0.46875 0.1875 0
0.5 0.1875 0
0.46875 0.21875 0
0.5 0.21875 0
0.4375 0.21875 0
0.46875 0.21875 0
0.4375 0.25 0
0.46875 0.25 0
0.46875 0.21875 0
0.5 0.21875 0
0.46875 0.25 0
0.5 0.25 0
0 0.25 0
0.03125 0.25 0
0 0.28125 0
0.03125 0.28125 0
0.03125 0.25 0
0.0625 0.25 0
0.03125 0.28125 0
0.0625 0.28125 0
0 0.28125 0
0.03125 0.28125 0
0 0.3125 0
0.03125 0.3125 0
0.03125 0.28125 0
0.0625 0.28125 0
0.03125 0.3125 0
0.0625 0.3125 0
0.0625 0.25 0
0.09375 0.25 0
0.0625 0.28125 0
0.09375 0.28125 0
0.09375 0.25 0
0.125 0.25 0
0.09375 0.28125 0
0.125 0.28125 0
0.0625 0.28125 0
0.09375 0.28125 0
0.0625 0.3125 0
0.09375 0.3125 0
0.09375 0.28125 0
0.125 0.28125 0
0.09375 0.3125 0
0.125 0.3125 0
0 0.3125 0
0.03125 0.3125 0
0 0.34375 0
0.03125 0.34375 0
0.03125 0.3125 0
0.0625 0.3125 0
0.03125 0.34375 0
0.0625 0.34375 0
0 0.34375 0
0.03125 0.34375 0
0 0.375 0
0.03125 0.375 0
0.03125 0.34375 0
0.0625 0.34375 0
0.03125 0.375 0
0.0625 0.375 0
0.0625 0.3125 0
0.09375 0.3125 0
0.0625 0.34375 0
0.09375 0.34375 0
0.09375 0.3125 0
0.125 0.3125 0
0.09375 0.34375 0
0.125 0.34375 0
0.0625 0.34375 0
0.09375 0.34375 0
0.0625 0.375 0
0.09375 0.375 0
0.09375 0.34375 0
0.125 0.34375 0
0.09375 0.375 0
0.125 0.375 0
0.125 0.25 0
0.15625 0.25 0
0.125 0.28125 0
0.15625 0.28125 0
0.15625 0.25 0
0.1875 0.25 0
0.15625 0.28125 0
0.1875 0.28125 0
0.125 0.28125 0
0.15625 0.28125 0
0.125 0.3125 0
0.15625 0.3125 0
0.15625 0.28125 0
0.1875 0.28125 0
0.15625 0.3125 0
0.1875 0.3125 0
0.1875 0.25 0
0.21875 0.25 0
0.1875 0.28125 0
0.21875 0.28125 0
0.21875 0.25 0
0.25 0.25 0
0.21875 0.28125 0
0.25 0.28125 0
0.1875 0.28125 0
0.21875 0.28125 0
0.1875 0.3125 0
0.21875 0.3125 0
0.21875 0.28125 0
0.25 0.28125 0
0.21875 0.3125 0
0.25 0.3125 0
0.125 0.3125 0
0.15625 0.3125 0
0.125 0.34375 0
0.15625 0.34375 0
0.15625 0.3125 0
0.1875 0.3125 0
0.15625 0.34375 0
0.1875 0.34375 0
0.125 0.34375 0
[...]
POINT_DATA 4096
SCALARS u_x double 1
LOOKUP_TABLE default
2.98572e-05 1.57551e-05 -1.41825e-05 -7.20469e-05 1.57551e-05 2.1529e-05 -7.20469e-05 -0.000445658 -1.41825e-05 -7.20469e-05 -0.000135493 -0.000246728 -7.20469e-05 -0.000445658 -0.000246728 -0.00104759 2.1529e-05 1.63763e-05 -0.000445658 -0.00110306 1.63763e-05 5.41406e-06 -0.00110306 -0.00198474 -0.000445658 -0.00110306 -0.00104759 -0.00226902 -0.00110306 -0.00198474 -0.00226902 -0.00383117 -0.000135493 -0.000246728 -0.000254147 -0.000399979 -0.000246728 -0.00104759 -0.000399979 -0.00158427 -0.000254147 -0.000399979 -0.000324024 -0.00051695 -0.000399979 -0.00158427 -0.00051695 -0.00200341 -0.00104759 -0.00226902 -0.00158427 -0.00328109 -0.00226902 -0.00383117 -0.00328109 -0.00538335 -0.00158427 -0.00328109 -0.00200341 -0.00408552 -0.00328109 -0.00538335 -0.00408552 -0.00661835 5.41406e-06 -7.62977e-06 -0.00198474 -0.00300004 -7.62977e-06 -2.09005e-05 -0.00300004 -0.00407376 -0.00198474 -0.00300004 -0.00383117 -0.00560026 -0.00300004 -0.00407376 -0.00560026 -0.00746302 -2.09005e-05 -3.3615e-05 -0.00407376 -0.00514931 -3.3615e-05 -4.54713e-05 -0.00514931 -0.00618693 -0.00407376 -0.00514931 -0.00746302 -0.00932855 -0.00514931 -0.00618693 -0.00932855 -0.0111298 -0.00383117 -0.00560026 -0.00538335 -0.00772594 -0.00560026 -0.00746302 -0.00772594 -0.010175 -0.00538335 -0.00772594 -0.00661835 -0.0094076 -0.00772594 -0.010175 -0.0094076 -0.0123035 -0.00746302 -0.00932855 -0.010175 -0.0126205 -0.00932855 -0.0111298 -0.0126205 -0.0149791 -0.010175 -0.0126205 -0.0123035 -0.0151844 -0.0126205 -0.0149791 -0.0151844 -0.0179572 -0.000324024 -0.00051695 -0.00032428 -0.000608402 -0.00051695 -0.00200341 -0.000608402 -0.00231943 -0.00032428 -0.000608402 -0.000246003 -0.000688534 -0.000608402 -0.00231943 -0.000688534 -0.00256629 -0.00200341 -0.00408552 -0.00231943 -0.00471095 -0.00408552 -0.00661835 -0.00471095 -0.00759157 -0.00231943 -0.00471095 -0.00256629 -0.00521601 -0.00471095 -0.00759157 -0.00521601 -0.00838991 -0.000246003 -0.000688534 -8.5082e-05 -0.000769376 -0.000688534 -0.00256629 -0.000769376 -0.00277797 -8.5082e-05 -0.000769376 0.000161237 -0.000860086 -0.000769376 -0.00277797 -0.000860086 -0.00298228 -0.00256629 -0.00521601 -0.00277797 -0.00566153 -0.00521601 -0.00838991 -0.00566153 -0.00910218 -0.00277797 -0.00566153 -0.00298228 -0.00609913 -0.00566153 -0.00910218 -0.00609913 -0.00980465 -0.00661835 -0.0094076 -0.00759157 -0.0107409 -0.0094076 -0.0123035 -0.0107409 -0.0139933 -0.00759157 -0.0107409 -0.00838991 -0.0118464 -0.0107409 -0.0139933 -0.0118464 -0.0154032 -0.0123035 -0.0151844 -0.0139933 -0.0172175 -0.0151844 -0.0179572 -0.0172175 -0.0203139 -0.0139933 -0.0172175 -0.0154032 -0.0189196 -0.0172175 -0.0203139 -0.0189196 -0.0222904 -0.00838991 -0.0118464 -0.00910218 -0.0128424 -0.0118464 -0.0154032 -0.0128424 -0.0166823 -0.00910218 -0.0128424 -0.00980465 -0.0138298 -0.0128424 -0.0166823 -0.0138298 -0.017956 -0.0154032 -0.0189196 -0.0166823 -0.0204715 -0.0189196 -0.0222904 -0.0204715 -0.0240988 -0.0166823 -0.0204715 -0.017956 -0.0220221 -0.0204715 -0.0240988 -0.0220221 -0.0259107 -4.54713e-05 -5.63814e-05 -0.00618693 -0.00715919 -5.63814e-05 -6.63179e-05 -0.00715919 -0.00804673 -0.00618693 -0.00715919 -0.0111298 -0.0128184 -0.00715919 -0.00804673 -0.0128184 -0.0143594 -6.63179e-05 -7.52459e-05 -0.00804673 -0.00883508 -7.52459e-05 -8.31024e-05 -0.00883508 -0.00951252 -0.00804673 -0.00883508 -0.0143594 -0.0157264 -0.00883508 -0.00951252 -0.0157264 -0.0168983 -0.0111298 -0.0128184 -0.0149791 -0.0171889 -0.0128184 -0.0143594 -0.0171889 -0.0192041 -0.0149791 -0.0171889 -0.0179572 -0.0205519 -0.0171889 -0.0192041 -0.0205519 -0.0229159 -0.0143594 -0.0157264 -0.0192041 -0.0209896 -0.0157264 -0.0168983 -0.0209896 -0.0225174 -0.0192041 -0.0209896 -0.0229159 -0.0250087 -0.0209896 -0.0225174 -0.0250087 -0.0267976 -8.31024e-05 -8.98007e-05 -0.00951252 -0.010069 -8.98007e-05 -9.52346e-05 -0.010069 -0.0104958 -0.00951252 -0.010069 -0.0168983 -0.0178574 -0.010069 -0.0104958 -0.0178574 -0.0185886 -9.52346e-05 -9.92802e-05 -0.0104958 -0.0107849 -9.92802e-05 -0.000101807 -0.0107849 -0.0109298 -0.0104958 -0.0107849 -0.0185886 -0.0190787 -0.0107849 -0.0109298 -0.0190787 -0.019317 -0.0168983 -0.0178574 -0.0225174 -0.0237646 -0.0178574 -0.0185886 -0.0237646 -0.0247113 -0.0225174 -0.0237646 -0.0267976 -0.0282558 -0.0237646 -0.0247113 -0.0282558 -0.0293607 -0.0185886 -0.0190787 -0.0247113 -0.0253412 -0.0190787 -0.019317 -0.0253412 -0.0256407 -0.0247113 -0.0253412 -0.0293607 -0.0300932 -0.0253412 -0.0256407 -0.0300932 -0.030438 -0.0179572 -0.0205519 -0.0203139 -0.0232077 -0.0205519 -0.0229159 -0.0232077 -0.0258422 -0.0203139 -0.0232077 -0.0222904 -0.0254372 -0.0232077 -0.0258422 -0.0254372 -0.0283007 -0.0229159 -0.0250087 -0.0258422 -0.0281733 -0.0250087 -0.0267976 -0.0281733 -0.0301656 -0.0258422 -0.0281733 -0.0283007 -0.0308347 -0.0281733 -0.0301656 -0.0308347 -0.0330023 -0.0222904 -0.0254372 -0.0240988 -0.0274825 -0.0254372 -0.0283007 -0.0274825 -0.0305615 -0.0240988 -0.0274825 -0.0259107 -0.0295369 -0.0274825 -0.0305615 -0.0295369 -0.0328377 -0.0283007 -0.0308347 -0.0305615 -0.0332884 -0.0308347 -0.0330023 -0.0332884 -0.0356248 -0.0305615 -0.0332884 -0.0328377 -0.0357648 -0.0332884 -0.0356248 -0.0357648 -0.0382793 -0.0267976 -0.0282558 -0.0301656 -0.0317898 -0.0282558 -0.0293607 -0.0317898 -0.0330211 -0.0301656 -0.0317898 -0.0330023 -0.0347722 -0.0317898 -0.0330211 -0.0347722 -0.0361182 -0.0293607 -0.0300932 -0.0330211 -0.0338387 -0.0300932 -0.030438 -0.0338387 -0.0342255 -0.0330211 -0.0338387 -0.0361182 -0.0370178 -0.0338387 -0.0342255 -0.0370178 -0.0374522 -0.0330023 -0.0347722 -0.0356248 -0.0375387 -0.0347722 -0.0361182 -0.0375387 -0.0390023 -0.0356248 -0.0375387 -0.0382793 -0.0403481 -0.0375387 -0.0390023 -0.0403481 -0.0419425 -0.0361182 -0.0370178 -0.0390023 -0.0399915 -0.0370178 -0.0374522 -0.0399915 -0.0404856 -0.0390023 -0.0399915 -0.0419425 -0.0430366 -0.0399915 -0.0404856 -0.0430366 -0.0436075 0.000161237 -0.000860086 0.000496126 -0.00096734 -0.000860086 -0.00298228 -0.00096734 -0.00319995 0.000496126 -0.00096734 0.000924033 -0.00109607 -0.00096734 -0.00319995 -0.00109607 -0.00344583 -0.00298228 -0.00609913 -0.00319995 -0.00656852 -0.00609913 -0.00980465 -0.00656852 -0.0105569 -0.00319995 -0.00656852 -0.00344583 -0.00709898 -0.00656852 -0.0105569 -0.00709898 -0.0114034 0.000924033 -0.00109607 0.00145108 -0.00125022 -0.00109607 -0.00344583 -0.00125022 -0.00373088 0.00145108 -0.00125022 0.00208529 -0.0014335 -0.00125022 -0.00373088 -0.0014335 -0.00406427 -0.00344583 -0.00709898 -0.00373088 -0.00771265 -0.00709898 -0.0114034 -0.00771265 -0.012378 -0.00373088 -0.00771265 -0.00406427 -0.00842821 -0.00771265 -0.012378 -0.00842821 -0.0135093 -0.00980465 -0.0138298 -0.0105569 -0.0148876 -0.0138298 -0.017956 -0.0148876 -0.0193213 -0.0105569 -0.0148876 -0.0114034 -0.016075 -0.0148876 -0.0193213 -0.016075 -0.0208513 -0.017956 -0.0220221 -0.0193213 -0.0236858 -0.0220221 -0.0259107 -0.0236858 -0.0278567 -0.0193213 -0.0236858 -0.0208513 -0.0255476 -0.0236858 -0.0278567 -0.0255476 -0.0300321 -0.0114034 -0.016075 -0.012378 -0.0174372 -0.016075 -0.0208513 -0.0174372 -0.0226007 -0.012378 -0.0174372 -0.0135093 -0.0190115 -0.0174372 -0.0226007 -0.0190115 -0.0246144 -0.0208513 -0.0255476 -0.0226007 -0.0276705 -0.0255476 -0.0300321 -0.0276705 -0.0325065 -0.0226007 -0.0276705 -0.0246144 -0.0301048 -0.0276705 -0.0325065 -0.0301048 -0.035334 0.00208529 -0.0014335 0.0028367 -0.00164989 -0.0014335 -0.00406427 -0.00164989 -0.00445516 0.0028367 -0.00164989 0.0037174 -0.00190425 -0.00164989 -0.00445516 -0.00190425 -0.00491436 -0.00406427 -0.00842821 -0.00445516 -0.0092642 -0.00842821 -0.0135093 -0.0092642 -0.014825 -0.00445516 -0.0092642 -0.00491436 -0.0102421 -0.0092642 -0.014825 -0.0102421 -0.0163563 0.0037174 -0.00190425 0.00474194 -0.00220281 -0.00190425 -0.00491436 -0.00220281 -0.00545593 0.00474194 -0.00220281 0.0059278 -0.00255385 -0.00220281 -0.00545593 -0.00255385 -0.00609912 -0.00491436 -0.0102421 -0.00545593 -0.011389 -0.0102421 -0.0163563 -0.011389 -0.0181424 -0.00545593 -0.011389 -0.00609912 -0.0127416 -0.011389 -0.0181424 -0.0127416 -0.0202342 -0.0135093 -0.0190115 -0.014825 -0.0208338 -0.0190115 -0.0246144 -0.0208338 -0.0269341 -0.014825 -0.0208338 -0.0163563 -0.0229434 -0.0208338 -0.0269341 -0.0229434 -0.0296045 -0.0246144 -0.0301048 -0.0269341 -0.0328959 -0.0301048 -0.035334 -0.0328959 -0.0385615 -0.0269341 -0.0328959 -0.0296045 -0.0360908 -0.0328959 -0.0385615 -0.0360908 -0.0422355 -0.0163563 -0.0229434 -0.0181424 -0.0253881 -0.0229434 -0.0296045 -0.0253881 -0.0326782 -0.0181424 -0.0253881 -0.0202342 -0.0282291 -0.0253881 -0.0326782 -0.0282291 -0.0362205 -0.0296045 -0.0360908 -0.0326782 -0.0397428 -0.0360908 -0.0422355 -0.0397428 -0.0464068 -0.0326782 -0.0397428 -0.0362205 -0.0439162 -0.0397428 -0.0464068 -0.0439162 -0.0511338 -0.0259107 -0.0295369 -0.0278567 -0.0317453 -0.0295369 -0.0328377 -0.0317453 -0.0352873 -0.0278567 -0.0317453 -0.0300321 -0.0342123 -0.0317453 -0.0352873 -0.0342123 -0.0380226 -0.0328377 -0.0357648 -0.0352873 -0.0384336 -0.0357648 -0.0382793 -0.0384336 -0.0411452 -0.0352873 -0.0384336 -0.0380226 -0.041414 -0.0384336 -0.0411452 -0.041414 -0.0443476 -0.0300321 -0.0342123 -0.0325065 -0.0370128 -0.0342123 -0.0380226 -0.0370128 -0.0411228 -0.0325065 -0.0370128 -0.035334 -0.0402029 -0.0370128 -0.0411228 -0.0402029 -0.0446452 -0.0380226 -0.041414 -0.0411228 -0.0447883 -0.041414 -0.0443476 -0.0447883 -0.0479717 -0.0411228 -0.0447883 -0.0446452 -0.0486144 -0.0447883 -0.0479717 -0.0486144 -0.0520757 -0.0382793 -0.0403481 -0.0411452 -0.0433885 -0.0403481 -0.0419425 -0.0433885 -0.0451338 -0.0411452 -0.0433885 -0.0443476 -0.04679 -0.0433885 -0.0451338 -0.04679 -0.0487111 -0.0419425 -0.0430366 -0.0451338 -0.0463537 -0.0430366 -0.0436075 -0.0463537 -0.0470224 -0.0451338 -0.0463537 -0.0487111 -0.0500818 -0.0463537 -0.0470224 -0.0500818 -0.0508735 -0.0443476 -0.04679 -0.0479717 -0.0506406 -0.04679 -0.0487111 -0.0506406 -0.0527651 -0.0479717 -0.0506406 -0.0520757 -0.0549993 -0.0506406 -0.0527651 -0.0549993 -0.0573566 -0.0487111 -0.0500818 -0.0527651 -0.0543152 -0.0500818 -0.0508735 -0.0543152 -0.0552593 -0.0527651 -0.0543152 -0.0573566 -0.0591175 -0.0543152 -0.0552593 -0.0591175 -0.060248 -0.035334 -0.0402029 -0.0385615 -0.0438295 -0.0402029 -0.0446452 -0.0438295 -0.048635 -0.0385615 -0.0438295 -0.0422355 -0.0479364 -0.0438295 -0.048635 -0.0479364 -0.0531324 -0.0446452 -0.0486144 -0.048635 -0.0529357 -0.0486144 -0.0520757 -0.0529357 -0.0567013 -0.048635 -0.0529357 -0.0531324 -0.0577876 -0.0529357 -0.0567013 -0.0577876 -0.0618793 -0.0422355 -0.0479364 -0.0464068 -0.0525691 -0.0479364 -0.0531324 -0.0525691 -0.0581756 -0.0464068 -0.0525691 -0.0511338 -0.057777 -0.0525691 -0.0581756 -0.057777 -0.0638031 -0.0531324 -0.0577876 -0.0581756 -0.0632006 -0.0577876 -0.0618793 -0.0632006 -0.0676327 -0.0581756 -0.0632006 -0.0638031 -0.0692011 -0.0632006 -0.0676327 -0.0692011 -0.0739757 -0.0520757 -0.0549993 -0.0567013 -0.0599065 -0.0549993 -0.0573566 -0.0599065 -0.0625262 -0.0567013 -0.0599065 -0.0618793 -0.0653896 -0.0599065 -0.0625262 -0.0653896 -0.0682996 -0.0573566 -0.0591175 -0.0625262 -0.0645316 -0.0591175 -0.060248 -0.0645316 -0.0658877 -0.0625262 -0.0645316 -0.0682996 -0.0705845 -0.0645316 -0.0658877 -0.0705845 -0.0722097 -0.0618793 -0.0653896 -0.0676327 -0.0714652 -0.0653896 -0.0682996 -0.0714652 -0.074689 -0.0676327 -0.0714652 -0.0739757 -0.0781363 -0.0714652 -0.074689 -0.0781363 -0.0816888 -0.0682996 -0.0705845 -0.074689 -0.0772869 -0.0705845 -0.0722097 -0.0772869 -0.079228 -0.074689 -0.0772869 -0.0816888 -0.0846281 -0.0772869 -0.079228 -0.0846281 -0.0869317 -0.000101807 -0.000102693 -0.0109298 -0.0109252 -0.000102693 -0.000101833 -0.0109252 -0.0107674 -0.0109298 -0.0109252 -0.019317 -0.0192952 -0.0109252 -0.0107674 -0.0192952 -0.0190078 -0.000101833 -9.91337e-05 -0.0107674 -0.0104547 -9.91337e-05 -9.45229e-05 -0.0104547 -0.00998743 -0.0107674 -0.0104547 -0.0190078 -0.0184526 -0.0104547 -0.00998743 -0.0184526 -0.0176316 -0.019317 -0.0192952 -0.0256407 -0.0255997 -0.0192952 -0.0190078 -0.0255997 -0.0252118 -0.0256407 -0.0255997 -0.030438 -0.0303837 -0.0255997 -0.0252118 -0.0303837 -0.0299231 -0.0190078 -0.0184526 -0.0252118 -0.024475 -0.0184526 -0.0176316 -0.024475 -0.0233924 -0.0252118 -0.024475 -0.0299231 -0.029054 -0.024475 -0.0233924 -0.029054 -0.0277803 -9.45229e-05 -8.79603e-05 -0.00998743 -0.00936892 -8.79603e-05 -7.94431e-05 -0.00936892 -0.0086057 -0.00998743 -0.00936892 -0.0176316 -0.0165511 -0.00936892 -0.0086057 -0.0165511 -0.0152238 -7.94431e-05 -6.90093e-05 -0.0086057 -0.00770864 -6.90093e-05 -5.67516e-05 -0.00770864 -0.00669449 -0.0086057 -0.00770864 -0.0152238 -0.0136694 -0.00770864 -0.00669449 -0.0136694 -0.011918 -0.0176316 -0.0165511 -0.0233924 -0.0219734 -0.0165511 -0.0152238 -0.0219734 -0.0202348 -0.0233924 -0.0219734 -0.0277803 -0.0261128 -0.0219734 -0.0202348 -0.0261128 -0.0240715 -0.0152238 -0.0136694 -0.0202348 -0.0182033 -0.0136694 -0.011918 -0.0182033 -0.0159182 -0.0202348 -0.0182033 -0.0240715 -0.0216875 -0.0182033 -0.0159182 -0.0216875 -0.0190063 -0.030438 -0.0303837 -0.0342255 -0.0341687 -0.0303837 -0.0299231 -0.0341687 -0.03366 -0.0342255 -0.0341687 -0.0374522 -0.0374068 -0.0341687 -0.03366 -0.0374068 -0.0368715 -0.0299231 -0.029054 -0.03366 -0.0326965 -0.029054 -0.0277803 -0.0326965 -0.0312816 -0.03366 -0.0326965 -0.0368715 -0.0358416 -0.0326965 -0.0312816 -0.0358416 -0.0343191 -0.0374522 -0.0374068 -0.0404856 -0.0404676 -0.0374068 -0.0368715 -0.0404676 -0.0399247 -0.0404856 -0.0404676 -0.0436075 -0.043635 -0.0404676 -0.0399247 -0.043635 -0.0431026 -0.0368715 -0.0358416 -0.0399247 -0.0388494 -0.0358416 -0.0343191 -0.0388494 -0.0372407 -0.0399247 -0.0388494 -0.0431026 -0.0419986 -0.0388494 -0.0372407 -0.0419986 -0.0403177 -0.0277803 -0.0261128 -0.0312816 -0.0294268 -0.0261128 -0.0240715 -0.0294268 -0.0271531 -0.0312816 -0.0294268 -0.0343191 -0.0323145 -0.0294268 -0.0271531 -0.0323145 -0.0298489 -0.0240715 -0.0216875 -0.0271531 -0.0244944 -0.0216875 -0.0190063 -0.0244944 -0.0215001 -0.0271531 -0.0244944 -0.0298489 -0.0269568 -0.0244944 -0.0215001 -0.0269568 -0.0236908 -0.0343191 -0.0323145 -0.0372407 -0.0351068 -0.0323145 -0.0298489 -0.0351068 -0.0324672 -0.0372407 -0.0351068 -0.0403177 -0.0380639 -0.0351068 -0.0324672 -0.0380639 -0.0352534 -0.0298489 -0.0269568 -0.0324672 -0.0293563 -0.0269568 -0.0236908 -0.0293563 -0.0258287 -0.0324672 -0.0293563 -0.0352534 -0.0319195 -0.0293563 -0.0258287 -0.0319195 -0.0281183 -5.67516e-05 -4.28351e-05 -0.00669449 -0.00558816 -4.28351e-05 -2.76716e-05 -0.00558816 -0.00442523 -0.00669449 -0.00558816 -0.011918 -0.010013 -0.00558816 -0.00442523 -0.010013 -0.00801521 -2.76716e-05 -1.15713e-05 -0.00442523 -0.00325832 -1.15713e-05 2.72387e-06 -0.00325832 -0.00214465 -0.00442523 -0.00325832 -0.00801521 -0.00600997 -0.00325832 -0.00214465 -0.00600997 -0.00409276 -0.011918 -0.010013 -0.0159182 -0.0134357 -0.010013 -0.00801521 -0.0134357 -0.0108325 -0.0159182 -0.0134357 -0.0190063 -0.0160921 -0.0134357 -0.0108325 -0.0160921 -0.0130322 -0.00801521 -0.00600997 -0.0108325 -0.00821349 -0.00600997 -0.00409276 -0.00821349 -0.00569652 -0.0108325 -0.00821349 -0.0130322 -0.00994369 -0.00821349 -0.00569652 -0.00994369 -0.00695964 2.72387e-06 1.54063e-05 -0.00214465 -0.00122843 1.54063e-05 5.73379e-05 -0.00122843 -0.000264794 -0.00214465 -0.00122843 -0.00409276 -0.00246047 -0.00122843 -0.000264794 -0.00246047 -0.000873837 5.73379e-05 -1.49404e-05 -0.000264794 -0.00110859 -1.49404e-05 0.00875011 -0.00110859 0.00775835 -0.000264794 -0.00110859 -0.000873837 -0.00134042 -0.00110859 0.00775835 -0.00134042 0.00809452 -0.00409276 -0.00246047 -0.00569652 -0.00350325 -0.00246047 -0.000873837 -0.00350325 -0.00142155 -0.00569652 -0.00350325 -0.00695964 -0.00432014 -0.00350325 -0.00142155 -0.00432014 -0.00184444 -0.000873837 -0.00134042 -0.00142155 -0.00151957 -0.00134042 0.00809452 -0.00151957 0.00794671 -0.00142155 -0.00151957 -0.00184444 -0.00163569 -0.00151957 0.00794671 -0.00163569 0.00786184 -0.0190063 -0.0160921 -0.0215001 -0.0182402 -0.0160921 -0.0130322 -0.0182402 -0.0148097 -0.0215001 -0.0182402 -0.0236908 -0.0201256 -0.0182402 -0.0148097 -0.0201256 -0.0163634 -0.0130322 -0.00994369 -0.0148097 -0.0113359 -0.00994369 -0.00695964 -0.0113359 -0.00796546 -0.0148097 -0.0113359 -0.0163634 -0.0125426 -0.0113359 -0.00796546 -0.0125426 -0.00882478 -0.0236908 -0.0201256 -0.0258287 -0.021964 -0.0201256 -0.0163634 -0.021964 -0.017873 -0.0258287 -0.021964 -0.0281183 -0.0239345 -0.021964 -0.017873 -0.0239345 -0.0194893 -0.0163634 -0.0125426 -0.017873 -0.0137066 -0.0125426 -0.00882478 -0.0137066 -0.00964474 -0.017873 -0.0137066 -0.0194893 -0.0149495 -0.0137066 -0.00964474 -0.0149495 -0.0105163 -0.00695964 -0.00432014 -0.00796546 -0.00495787 -0.00432014 -0.00184444 -0.00495787 -0.00216115 -0.00796546 -0.00495787 -0.00882478 -0.00549151 -0.00495787 -0.00216115 -0.00549151 -0.00241655 -0.00184444 -0.00163569 -0.00216115 -0.00172283 -0.00163569 0.00786184 -0.00172283 0.00785173 -0.00216115 -0.00172283 -0.00241655 -0.00180083 -0.00172283 0.00785173 -0.00180083 0.00791135 -0.00882478 -0.00549151 -0.00964474 -0.00599396 -0.00549151 -0.00241655 -0.00599396 -0.00265082 -0.00964474 -0.00599396 -0.0105163 -0.00652583 -0.00599396 -0.00265082 -0.00652583 -0.00289595 -0.00241655 -0.00180083 -0.00265082 -0.00188216 -0.00180083 0.00791135 -0.00188216 0.00804376 -0.00265082 -0.00188216 -0.00289595 -0.00197674 -0.00188216 0.00804376 -0.00197674 0.00824873 -0.0436075 -0.043635 -0.0470224 -0.0471161 -0.043635 -0.0431026 -0.0471161 -0.0466135 -0.0470224 -0.0471161 -0.0508735 -0.051058 -0.0471161 -0.0466135 -0.051058 -0.0506077 -0.0431026 -0.0419986 -0.0466135 -0.045497 -0.0419986 -0.0403177 -0.045497 -0.043755 -0.0466135 -0.045497 -0.0506077 -0.0494977 -0.045497 -0.043755 -0.0494977 -0.0477077 -0.0508735 -0.051058 -0.0552593 -0.0555642 -0.051058 -0.0506077 -0.0555642 -0.0551951 -0.0552593 -0.0555642 -0.060248 -0.0607098 -0.0555642 -0.0551951 -0.0607098 -0.0604594 -0.0506077 -0.0494977 -0.0551951 -0.0541172 -0.0494977 -0.0477077 -0.0541172 -0.0522988 -0.0551951 -0.0541172 -0.0604594 -0.05945 -0.0541172 -0.0522988 -0.05945 -0.0576348 -0.0403177 -0.0380639 -0.043755 -0.0413852 -0.0380639 -0.0352534 -0.0413852 -0.0383989 -0.043755 -0.0413852 -0.0477077 -0.0452264 -0.0413852 -0.0383989 -0.0452264 -0.042057 -0.0352534 -0.0319195 -0.0383989 -0.0348264 -0.0319195 -0.0281183 -0.0348264 -0.0307242 -0.0383989 -0.0348264 -0.042057 -0.0382247 -0.0348264 -0.0307242 -0.0382247 -0.0337853 -0.0477077 -0.0452264 -0.0522988 -0.0497161 -0.0452264 -0.042057 -0.0497161 -0.0463603 -0.0522988 -0.0497161 -0.0576348 -0.0549725 -0.0497161 -0.0463603 -0.0549725 -0.051437 -0.042057 -0.0382247 -0.0463603 -0.0422474 -0.0382247 -0.0337853 -0.0422474 -0.0374301 -0.0463603 -0.0422474 -0.051437 -0.0470296 -0.0422474 -0.0374301 -0.0470296 -0.0417949 -0.060248 -0.0607098 -0.0658877 -0.0665508 -0.0607098 -0.0604594 -0.0665508 -0.0664681 -0.0658877 -0.0665508 -0.0722097 -0.0731276 -0.0665508 -0.0664681 -0.0731276 -0.0732758 -0.0604594 -0.05945 -0.0664681 -0.0655784 -0.05945 -0.0576348 -0.0655784 -0.0638155 -0.0664681 -0.0655784 -0.0732758 -0.0725766 -0.0655784 -0.0638155 -0.0725766 -0.0709397 -0.0722097 -0.0731276 -0.079228 -0.0804632 -0.0731276 -0.0732758 -0.0804632 -0.0809214 -0.079228 -0.0804632 -0.0869317 -0.0885533 -0.0804632 -0.0809214 -0.0885533 -0.0894162 -0.0732758 -0.0725766 -0.0809214 -0.0805071 -0.0725766 -0.0709397 -0.0805071 -0.079102 -0.0809214 -0.0805071 -0.0894162 -0.0894082 -0.0805071 -0.079102 -0.0894082 -0.0883798 -0.0576348 -0.0549725 -0.0638155 -0.0611147 -0.0549725 -0.051437 -0.0611147 -0.0574247 -0.0638155 -0.0611147 -0.0709397 -0.0682696 -0.0611147 -0.0574247 -0.0682696 -0.0644791 -0.051437 -0.0470296 -0.0574247 -0.0527234 -0.0470296 -0.0417949 -0.0527234 -0.0470394 -0.0574247 -0.0527234 -0.0644791 -0.0595106 -0.0527234 -0.0470394 -0.0595106 -0.053364 -0.0709397 -0.0682696 -0.079102 -0.076571 -0.0682696 -0.0644791 -0.076571 -0.0727781 -0.079102 -0.076571 -0.0883798 -0.0861483 -0.076571 