# vtk DataFile Version 3.0
#This file was generated by the deal.II library on 2026/1/5 at 14:19:30
ASCII
DATASET UNSTRUCTURED_GRID

POINTS 4096 double
0 0 0
0.03125 0 0
0 0.03125 0
0.03125 0.03125 0
0.03125 0 0
0.0625 0 0
0.03125 0.03125 0
0.0625 0.03125 0
0 0.03125 0
0.03125 0.03125 0
0 0.0625 0
0.03125 0.0625 0
0.03125 0.03125 0
0.0625 0.03125 0
0.03125 0.0625 0
0.0625 0.0625 0
0.0625 0 0
0.09375 0 0
0.0625 0.03125 0
0.09375 0.03125 0
0.09375 0 0
0.125 0 0
0.09375 0.03125 0
0.125 0.03125 0
0.0625 0.03125 0
0.09375 0.03125 0
0.0625 0.0625 0
0.09375 0.0625 0
0.09375 0.03125 0
0.125 0.03125 0
0.09375 0.0625 0
0.125 0.0625 0
0 0.0625 0
0.03125 0.0625 0
0 0.09375 0
0.03125 0.09375 0
0.03125 0.0625 0
0.0625 0.0625 0
0.03125 0.09375 0
0.0625 0.09375 0
0 0.09375 0
0.03125 0.09375 0
0 0.125 0
0.03125 0.125 0
0.03125 0.09375 0
0.0625 0.09375 0
0.03125 0.125 0
0.0625 0.125 0
0.0625 0.0625 0
0.09375 0.0625 0
0.0625 0.09375 0
0.09375 0.09375 0
0.09375 0.0625 0
0.125 0.0625 0
0.09375 0.09375 0
0.125 0.09375 0
0.0625 0.09375 0
0.09375 0.09375 0
0.0625 0.125 0
0.09375 0.125 0
0.09375 0.09375 0
0.125 0.09375 0
0.09375 0.125 0
0.125 0.125 0
0.125 0 0
0.15625 0 0
0.125 0.03125 0
0.15625 0.03125 0
0.15625 0 0
0.1875 0 0
0.15625 0.03125 0
0.1875 0.03125 0
0.125 0.03125 0
0.15625 0.03125 0
0.125 0.0625 0
0.15625 0.0625 0
0.15625 0.03125 0
0.1875 0.03125 0
0.15625 0.0625 0
0.1875 0.0625 0
0.1875 0 0
0.21875 0 0
0.1875 0.03125 0
0.21875 0.03125 0
0.21875 0 0
0.25 0 0
0.21875 0.03125 0
0.25 0.03125 0
0.1875 0.03125 0
0.21875 0.03125 0
0.1875 0.0625 0
0.21875 0.0625 0
0.21875 0.03125 0
0.25 0.03125 0
0.21875 0.0625 0
0.25 0.0625 0
0.125 0.0625 0
0.15625 0.0625 0
0.125 0.09375 0
0.15625 0.09375 0
0.15625 0.0625 0
0.1875 0.0625 0
0.15625 0.09375 0
0.1875 0.09375 0
0.125 0.09375 0
0.15625 0.09375 0
0.125 0.125 0
0.15625 0.125 0
0.15625 0.09375 0
0.1875 0.09375 0
0.15625 0.125 0
0.1875 0.125 0
0.1875 0.0625 0
0.21875 0.0625 0
0.1875 0.09375 0
0.21875 0.09375 0
0.21875 0.0625 0
0.25 0.0625 0
0.21875 0.09375 0
0.25 0.09375 0
0.1875 0.09375 0
0.21875 0.09375 0
0.1875 0.125 0
0.21875 0.125 0
0.21875 0.09375 0
0.25 0.09375 0
0.21875 0.125 0
0.25 0.125 0
0 0.125 0
0.03125 0.125 0
0 0.15625 0
0.03125 0.15625 0
0.03125 0.125 0
0.0625 0.125 0
0.03125 0.15625 0
0.0625 0.15625 0
0 0.15625 0
0.03125 0.15625 0
0 0.1875 0
0.03125 0.1875 0
0.03125 0.15625 0
0.0625 0.15625 0
0.03125 0.1875 0
0.0625 0.1875 0
0.0625 0.125 0
0.09375 0.125 0
0.0625 0.15625 0
0.09375 0.15625 0
0.09375 0.125 0
0.125 0.125 0
0.09375 0.15625 0
0.125 0.15625 0
0.0625 0.15625 0
0.09375 0.15625 0
0.0625 0.1875 0
0.09375 0.1875 0
0.09375 0.15625 0
0.125 0.15625 0
0.09375 0.1875 0
0.125 0.1875 0
0 0.1875 0
0.03125 0.1875 0
0 0.21875 0
0.03125 0.21875 0
0.03125 0.1875 0
0.0625 0.1875 0
0.03125 0.21875 0
0.0625 0.21875 0
0 0.21875 0
0.03125 0.21875 0
0 0.25 0
0.03125 0.25 0
0.03125 0.21875 0
0.0625 0.21875 0
0.03125 0.25 0
0.0625 0.25 0
0.0625 0.1875 0
0.09375 0.1875 0
0.0625 0.21875 0
0.09375 0.21875 0
0.09375 0.1875 0
0.125 0.1875 0
0.09375 0.21875 0
0.125 0.21875 0
0.0625 0.21875 0
0.09375 0.21875 0
0.0625 0.25 0
0.09375 0.25 0
0.09375 0.21875 0
0.125 0.21875 0
0.09375 0.25 0
0.125 0.25 0
0.125 0.125 0
0.15625 0.125 0
0.125 0.15625 0
0.15625 0.15625 0
0.15625 0.125 0
0.1875 0.125 0
0.15625 0.15625 0
0.1875 0.15625 0
0.125 0.15625 0
0.15625 0.15625 0
0.125 0.1875 0
0.15625 0.1875 0
0.15625 0.15625 0
0.1875 0.15625 0
0.15625 0.1875 0
0.1875 0.1875 0
0.1875 0.125 0
0.21875 0.125 0
0.1875 0.15625 0
0.21875 0.15625 0
0.21875 0.125 0
0.25 0.125 0
0.21875 0.15625 0
0.25 0.15625 0
0.1875 0.15625 0
0.21875 0.15625 0
0.1875 0.1875 0
0.21875 0.1875 0
0.21875 0.15625 0
0.25 0.15625 0
0.21875 0.1875 0
0.25 0.1875 0
0.125 0.1875 0
0.15625 0.1875 0
0.125 0.21875 0
0.15625 0.21875 0
0.15625 0.1875 0
0.1875 0.1875 0
0.15625 0.21875 0
0.1875 0.21875 0
0.125 0.21875 0
0.15625 0.21875 0
0.125 0.25 0
0.15625 0.25 0
0.15625 0.21875 0
0.1875 0.21875 0
0.15625 0.25 0
0.1875 0.25 0
0.1875 0.1875 0
0.21875 0.1875 0
0.1875 0.21875 0
0.21875 0.21875 0
0.21875 0.1875 0
0.25 0.1875 0
0.21875 0.21875 0
0.25 0.21875 0
0.1875 0.21875 0
0.21875 0.21875 0
0.1875 0.25 0
0.21875 0.25 0
0.21875 0.21875 0
0.25 0.21875 0
0.21875 0.25 0
0.25 0.25 0
0.25 0 0
0.28125 0 0
0.25 0.03125 0
0.28125 0.03125 0
0.28125 0 0
0.3125 0 0
0.28125 0.03125 0
0.3125 0.03125 0
0.25 0.03125 0
0.28125 0.03125 0
0.25 0.0625 0
0.28125 0.0625 0
0.28125 0.03125 0
0.3125 0.03125 0
0.28125 0.0625 0
0.3125 0.0625 0
0.3125 0 0
0.34375 0 0
0.3125 0.03125 0
0.34375 0.03125 0
0.34375 0 0
0.375 0 0
0.34375 0.03125 0
0.375 0.03125 0
0.3125 0.03125 0
0.34375 0.03125 0
0.3125 0.0625 0
0.34375 0.0625 0
0.34375 0.03125 0
0.375 0.03125 0
0.34375 0.0625 0
0.375 0.0625 0
0.25 0.0625 0
0.28125 0.0625 0
0.25 0.09375 0
0.28125 0.09375 0
0.28125 0.0625 0
0.3125 0.0625 0
0.28125 0.09375 0
0.3125 0.09375 0
0.25 0.09375 0
0.28125 0.09375 0
0.25 0.125 0
0.28125 0.125 0
0.28125 0.09375 0
0.3125 0.09375 0
0.28125 0.125 0
0.3125 0.125 0
0.3125 0.0625 0
0.34375 0.0625 0
0.3125 0.09375 0
0.34375 0.09375 0
0.34375 0.0625 0
0.375 0.0625 0
0.34375 0.09375 0
0.375 0.09375 0
0.3125 0.09375 0
0.34375 0.09375 0
0.3125 0.125 0
0.34375 0.125 0
0.34375 0.09375 0
0.375 0.09375 0
0.34375 0.125 0
0.375 0.125 0
0.375 0 0
0.40625 0 0
0.375 0.03125 0
0.40625 0.03125 0
0.40625 0 0
0.4375 0 0
0.40625 0.03125 0
0.4375 0.03125 0
0.375 0.03125 0
0.40625 0.03125 0
0.375 0.0625 0
0.40625 0.0625 0
0.40625 0.03125 0
0.4375 0.03125 0
0.40625 0.0625 0
0.4375 0.0625 0
0.4375 0 0
0.46875 0 0
0.4375 0.03125 0
0.46875 0.03125 0
0.46875 0 0
0.5 0 0
0.46875 0.03125 0
0.5 0.03125 0
0.4375 0.03125 0
0.46875 0.03125 0
0.4375 0.0625 0
0.46875 0.0625 0
0.46875 0.03125 0
0.5 0.03125 0
0.46875 0.0625 0
0.5 0.0625 0
0.375 0.0625 0
0.40625 0.0625 0
0.375 0.09375 0
0.40625 0.09375 0
0.40625 0.0625 0
0.4375 0.0625 0
0.40625 0.09375 0
0.4375 0.09375 0
0.375 0.09375 0
0.40625 0.09375 0
0.375 0.125 0
0.40625 0.125 0
0.40625 0.09375 0
0.4375 0.09375 0
0.40625 0.125 0
0.4375 0.125 0
0.4375 0.0625 0
0.46875 0.0625 0
0.4375 0.09375 0
0.46875 0.09375 0
0.46875 0.0625 0
0.5 0.0625 0
0.46875 0.09375 0
0.5 0.09375 0
0.4375 0.09375 0
0.46875 0.09375 0
0.4375 0.125 0
0.46875 0.125 0
0.46875 0.09375 0
0.5 0.09375 0
0.46875 0.125 0
0.5 0.125 0
0.25 0.125 0
0.28125 0.125 0
0.25 0.15625 0
0.28125 0.15625 0
0.28125 0.125 0
0.3125 0.125 0
0.28125 0.15625 0
0.3125 0.15625 0
0.25 0.15625 0
0.28125 0.15625 0
0.25 0.1875 0
0.28125 0.1875 0
0.28125 0.15625 0
0.3125 0.15625 0
0.28125 0.1875 0
0.3125 0.1875 0
0.3125 0.125 0
0.34375 0.125 0
0.3125 0.15625 0
0.34375 0.15625 0
0.34375 0.125 0
0.375 0.125 0
0.34375 0.15625 0
0.375 0.15625 0
0.3125 0.15625 0
0.34375 0.15625 0
0.3125 0.1875 0
0.34375 0.1875 0
0.34375 0.15625 0
0.375 0.15625 0
0.34375 0.1875 0
0.375 0.1875 0
0.25 0.1875 0
0.28125 0.1875 0
0.25 0.21875 0
0.28125 0.21875 0
0.28125 0.1875 0
0.3125 0.1875 0
0.28125 0.21875 0
0.3125 0.21875 0
0.25 0.21875 0
0.28125 0.21875 0
0.25 0.25 0
0.28125 0.25 0
0.28125 0.21875 0
0.3125 0.21875 0
0.28125 0.25 0
0.3125 0.25 0
0.3125 0.1875 0
0.34375 0.1875 0
0.3125 0.21875 0
0.34375 0.21875 0
0.34375 0.1875 0
0.375 0.1875 0
0.34375 0.21875 0
0.375 0.21875 0
0.3125 0.21875 0
0.34375 0.21875 0
0.3125 0.25 0
0.34375 0.25 0
0.34375 0.21875 0
0.375 0.21875 0
0.34375 0.25 0
0.375 0.25 0
0.375 0.125 0
0.40625 0.125 0
0.375 0.15625 0
0.40625 0.15625 0
0.40625 0.125 0
0.4375 0.125 0
0.40625 0.15625 0
0.4375 0.15625 0
0.375 0.15625 0
0.40625 0.15625 0
0.375 0.1875 0
0.40625 0.1875 0
0.40625 0.15625 0
0.4375 0.15625 0
0.40625 0.1875 0
0.4375 0.1875 0
0.4375 0.125 0
0.46875 0.125 0
0.4375 0.15625 0
0.46875 0.15625 0
0.46875 0.125 0
0.5 0.125 0
0.46875 0.15625 0
0.5 0.15625 0
0.4375 0.15625 0
0.46875 0.15625 0
0.4375 0.1875 0
0.46875 0.1875 0
0.46875 0.15625 0
0.5 0.15625 0
0.46875 0.1875 0
0.5 0.1875 0
0.375 0.1875 0
0.40625 0.1875 0
0.375 0.21875 0
0.40625 0.21875 0
0.40625 0.1875 0
0.4375 0.1875 0
0.40625 0.21875 0
0.4375 0.21875 0
0.375 0.21875 0
0.40625 0.21875 0
0.375 0.25 0
0.40625 0.25 0
0.40625 0.21875 0
0.4375 0.21875 0
0.40625 0.25 0
0.4375 0.25 0
0.4375 0.1875 0
0.46875 0.1875 0
0.4375 0.21875 0
0.46875 0.21875 0
0.46875 0.1875 0
0.5 0.1875 0
0.46875 0.21875 0
0.5 0.21875 0
0.4375 0.21875 0
0.46875 0.21875 0
0.4375 0.25 0
0.46875 0.25 0
0.46875 0.21875 0
0.5 0.21875 0
0.46875 0.25 0
0.5 0.25 0
0 0.25 0
0.03125 0.25 0
0 0.28125 0
0.03125 0.28125 0
0.03125 0.25 0
0.0625 0.25 0
0.03125 0.28125 0
0.0625 0.28125 0
0 0.28125 0
0.03125 0.28125 0
0 0.3125 0
0.03125 0.3125 0
0.03125 0.28125 0
0.0625 0.28125 0
0.03125 0.3125 0
0.0625 0.3125 0
0.0625 0.25 0
0.09375 0.25 0
0.0625 0.28125 0
0.09375 0.28125 0
0.09375 0.25 0
0.125 0.25 0
0.09375 0.28125 0
0.125 0.28125 0
0.0625 0.28125 0
0.09375 0.28125 0
0.0625 0.3125 0
0.09375 0.3125 0
0.09375 0.28125 0
0.125 0.28125 0
0.09375 0.3125 0
0.125 0.3125 0
0 0.3125 0
0.03125 0.3125 0
0 0.34375 0
0.03125 0.34375 0
0.03125 0.3125 0
0.0625 0.3125 0
0.03125 0.34375 0
0.0625 0.34375 0
0 0.34375 0
0.03125 0.34375 0
0 0.375 0
0.03125 0.375 0
0.03125 0.34375 0
0.0625 0.34375 0
0.03125 0.375 0
0.0625 0.375 0
0.0625 0.3125 0
0.09375 0.3125 0
0.0625 0.34375 0
0.09375 0.34375 0
0.09375 0.3125 0
0.125 0.3125 0
0.09375 0.34375 0
0.125 0.34375 0
0.0625 0.34375 0
0.09375 0.34375 0
0.0625 0.375 0
0.09375 0.375 0
0.09375 0.34375 0
0.125 0.34375 0
0.09375 0.375 0
0.125 0.375 0
0.125 0.25 0
0.15625 0.25 0
0.125 0.28125 0
0.15625 0.28125 0
0.15625 0.25 0
0.1875 0.25 0
0.15625 0.28125 0
0.1875 0.28125 0
0.125 0.28125 0
0.15625 0.28125 0
0.125 0.3125 0
0.15625 0.3125 0
0.15625 0.28125 0
0.1875 0.28125 0
0.15625 0.3125 0
0.1875 0.3125 0
0.1875 0.25 0
0.21875 0.25 0
0.1875 0.28125 0
0.21875 0.28125 0
0.21875 0.25 0
0.25 0.25 0
0.21875 0.28125 0
0.25 0.28125 0
0.1875 0.28125 0
0.21875 0.28125 0
0.1875 0.3125 0
0.21875 0.3125 0
0.21875 0.28125 0
0.25 0.28125 0
0.21875 0.3125 0
0.25 0.3125 0
0.125 0.3125 0
0.15625 0.3125 0
0.125 0.34375 0
0.15625 0.34375 0
0.15625 0.3125 0
0.1875 0.3125 0
0.15625 0.34375 0
0.1875 0.34375 0
0.125 0.34375 0
[...]
POINT_DATA 4096
SCALARS u_x double 1
LOOKUP_TABLE default
1.10619e-05 1.4946e-05 -5.60688e-05 -0.000163978 1.4946e-05 1.28997e-05 -0.000163978 -0.000686349 -5.60688e-05 -0.000163978 -0.000159299 -0.000355611 -0.000163978 -0.000686349 -0.000355611 -0.00129227 1.28997e-05 -1.50447e-06 -0.000686349 -0.00145789 -1.50447e-06 -1.89056e-05 -0.00145789 -0.00236039 -0.000686349 -0.00145789 -0.00129227 -0.00256674 -0.00145789 -0.00236039 -0.00256674 -0.00402617 -0.000159299 -0.000355611 -0.000199596 -0.000477754 -0.000355611 -0.00129227 -0.000477754 -0.00168134 -0.000199596 -0.000477754 -0.000144048 -0.000552904 -0.000477754 -0.00168134 -0.000552904 -0.00190161 -0.00129227 -0.00256674 -0.00168134 -0.00327386 -0.00256674 -0.00402617 -0.00327386 -0.00506725 -0.00168134 -0.00327386 -0.00190161 -0.00369235 -0.00327386 -0.00506725 -0.00369235 -0.0056889 -1.89056e-05 -3.59954e-05 -0.00236039 -0.00329848 -3.59954e-05 -5.19313e-05 -0.00329848 -0.00421955 -0.00236039 -0.00329848 -0.00402617 -0.00553791 -0.00329848 -0.00421955 -0.00553791 -0.00702454 -5.19313e-05 -6.66968e-05 -0.00421955 -0.00509626 -6.66968e-05 -8.03542e-05 -0.00509626 -0.00591357 -0.00421955 -0.00509626 -0.00702454 -0.00844182 -0.00509626 -0.00591357 -0.00844182 -0.00976382 -0.00402617 -0.00553791 -0.00506725 -0.00691332 -0.00553791 -0.00702454 -0.00691332 -0.00872567 -0.00506725 -0.00691332 -0.0056889 -0.00773461 -0.00691332 -0.00872567 -0.00773461 -0.00973798 -0.00702454 -0.00844182 -0.00872567 -0.0104531 -0.00844182 -0.00976382 -0.0104531 -0.0120642 -0.00872567 -0.0104531 -0.00973798 -0.0116454 -0.0104531 -0.0120642 -0.0116454 -0.0134234 -0.000144048 -0.000552904 1.38127e-05 -0.000613468 -0.000552904 -0.00190161 -0.000613468 -0.00203488 1.38127e-05 -0.000613468 0.000273774 -0.00068059 -0.000613468 -0.00203488 -0.00068059 -0.00214143 -0.00190161 -0.00369235 -0.00203488 -0.00396435 -0.00369235 -0.0056889 -0.00396435 -0.00610192 -0.00203488 -0.00396435 -0.00214143 -0.00419423 -0.00396435 -0.00610192 -0.00419423 -0.00645562 0.000273774 -0.00068059 0.000636594 -0.000764789 -0.00068059 -0.00214143 -0.000764789 -0.00225388 0.000636594 -0.000764789 0.00110552 -0.000870781 -0.000764789 -0.00225388 -0.000870781 -0.00238692 -0.00214143 -0.00419423 -0.00225388 -0.00444077 -0.00419423 -0.00645562 -0.00444077 -0.00683441 -0.00225388 -0.00444077 -0.00238692 -0.00473202 -0.00444077 -0.00683441 -0.00473202 -0.00727943 -0.0056889 -0.00773461 -0.00610192 -0.00828745 -0.00773461 -0.00973798 -0.00828745 -0.0104233 -0.00610192 -0.00828745 -0.00645562 -0.00876676 -0.00828745 -0.0104233 -0.00876676 -0.011022 -0.00973798 -0.0116454 -0.0104233 -0.0124544 -0.0116454 -0.0134234 -0.0124544 -0.0143462 -0.0104233 -0.0124544 -0.011022 -0.0131644 -0.0124544 -0.0143462 -0.0131644 -0.0151581 -0.00645562 -0.00876676 -0.00683441 -0.00928161 -0.00876676 -0.011022 -0.00928161 -0.0116668 -0.00683441 -0.00928161 -0.00727943 -0.00988526 -0.00928161 -0.0116668 -0.00988526 -0.0124221 -0.011022 -0.0131644 -0.0116668 -0.0139305 -0.0131644 -0.0151581 -0.0139305 -0.016035 -0.0116668 -0.0139305 -0.0124221 -0.014827 -0.0139305 -0.016035 -0.014827 -0.0170605 -8.03542e-05 -9.28899e-05 -0.00591357 -0.00666129 -9.28899e-05 -0.000104223 -0.00666129 -0.00733109 -0.00591357 -0.00666129 -0.00976382 -0.0109728 -0.00666129 -0.00733109 -0.0109728 -0.0120548 -0.000104223 -0.000114243 -0.00733109 -0.00791561 -0.000114243 -0.000122832 -0.00791561 -0.00840829 -0.00733109 -0.00791561 -0.0120548 -0.0129975 -0.00791561 -0.00840829 -0.0129975 -0.0137907 -0.00976382 -0.0109728 -0.0120642 -0.013537 -0.0109728 -0.0120548 -0.013537 -0.014854 -0.0120642 -0.013537 -0.0134234 -0.015048 -0.013537 -0.014854 -0.015048 -0.0165 -0.0120548 -0.0129975 -0.014854 -0.0160006 -0.0129975 -0.0137907 -0.0160006 -0.016964 -0.014854 -0.0160006 -0.0165 -0.0177634 -0.0160006 -0.016964 -0.0177634 -0.0188242 -0.000122832 -0.000129877 -0.00840829 -0.00880347 -0.000129877 -0.000135272 -0.00880347 -0.00909639 -0.00840829 -0.00880347 -0.0137907 -0.0144252 -0.00880347 -0.00909639 -0.0144252 -0.0148937 -0.000135272 -0.000138927 -0.00909639 -0.00928328 -0.000138927 -0.000140772 -0.00928328 -0.00936142 -0.00909639 -0.00928328 -0.0148937 -0.0151904 -0.00928328 -0.00936142 -0.0151904 -0.0153111 -0.0137907 -0.0144252 -0.016964 -0.0177335 -0.0144252 -0.0148937 -0.0177335 -0.0183003 -0.016964 -0.0177335 -0.0188242 -0.0196711 -0.0177335 -0.0183003 -0.0196711 -0.0202945 -0.0148937 -0.0151904 -0.0183003 -0.0186576 -0.0151904 -0.0153111 -0.0186576 -0.0188007 -0.0183003 -0.0186576 -0.0202945 -0.0206872 -0.0186576 -0.0188007 -0.0206872 -0.0208439 -0.0134234 -0.015048 -0.0143462 -0.0160738 -0.015048 -0.0165 -0.0160738 -0.0176173 -0.0143462 -0.0160738 -0.0151581 -0.0169776 -0.0160738 -0.0176173 -0.0169776 -0.0186026 -0.0165 -0.0177634 -0.0176173 -0.0189599 -0.0177634 -0.0188242 -0.0189599 -0.0200872 -0.0176173 -0.0189599 -0.0186026 -0.0200158 -0.0189599 -0.0200872 -0.0200158 -0.0212026 -0.0151581 -0.0169776 -0.016035 -0.0179543 -0.0169776 -0.0186026 -0.0179543 -0.0196674 -0.016035 -0.0179543 -0.0170605 -0.0190954 -0.0179543 -0.0196674 -0.0190954 -0.0209105 -0.0186026 -0.0200158 -0.0196674 -0.021157 -0.0200158 -0.0212026 -0.021157 -0.0224084 -0.0196674 -0.021157 -0.0209105 -0.0224882 -0.021157 -0.0224084 -0.0224882 -0.0238139 -0.0188242 -0.0196711 -0.0200872 -0.0209873 -0.0196711 -0.0202945 -0.0209873 -0.0216503 -0.0200872 -0.0209873 -0.0212026 -0.0221509 -0.0209873 -0.0216503 -0.0221509 -0.0228508 -0.0202945 -0.0206872 -0.0216503 -0.0220689 -0.0206872 -0.0208439 -0.0220689 -0.0222375 -0.0216503 -0.0220689 -0.0228508 -0.0232946 -0.0220689 -0.0222375 -0.0232946 -0.0234767 -0.0212026 -0.0221509 -0.0224084 -0.0234093 -0.0221509 -0.0228508 -0.0234093 -0.02415 -0.0224084 -0.0234093 -0.0238139 -0.0248757 -0.0234093 -0.02415 -0.0248757 -0.0256637 -0.0228508 -0.0232946 -0.02415 -0.0246225 -0.0232946 -0.0234767 -0.0246225 -0.0248211 -0.02415 -0.0246225 -0.0256637 -0.0261701 -0.0246225 -0.0248211 -0.0261701 -0.026389 0.00110552 -0.000870781 0.00168621 -0.00100106 -0.000870781 -0.00238692 -0.00100106 -0.00254706 0.00168621 -0.00100106 0.00238639 -0.00115778 -0.00100106 -0.00254706 -0.00115778 -0.00273832 -0.00238692 -0.00473202 -0.00254706 -0.00508136 -0.00473202 -0.00727943 -0.00508136 -0.00781084 -0.00254706 -0.00508136 -0.00273832 -0.00549741 -0.00508136 -0.00781084 -0.00549741 -0.00844171 0.00238639 -0.00115778 0.00321577 -0.00134346 -0.00115778 -0.00273832 -0.00134346 -0.00296471 0.00321577 -0.00134346 0.00418608 -0.00156128 -0.00134346 -0.00296471 -0.00156128 -0.00323135 -0.00273832 -0.00549741 -0.00296471 -0.00598867 -0.00549741 -0.00844171 -0.00598867 -0.00918469 -0.00296471 -0.00598867 -0.00323135 -0.00656552 -0.00598867 -0.00918469 -0.00656552 -0.0100549 -0.00727943 -0.00988526 -0.00781084 -0.0106041 -0.00988526 -0.0124221 -0.0106041 -0.0133195 -0.00781084 -0.0106041 -0.00844171 -0.0114551 -0.0106041 -0.0133195 -0.0114551 -0.0143792 -0.0124221 -0.014827 -0.0133195 -0.0158903 -0.014827 -0.0170605 -0.0158903 -0.0182746 -0.0133195 -0.0158903 -0.0143792 -0.017143 -0.0158903 -0.0182746 -0.017143 -0.0197016 -0.00844171 -0.0114551 -0.00918469 -0.0124546 -0.0114551 -0.0143792 -0.0124546 -0.0156205 -0.00918469 -0.0124546 -0.0100549 -0.0136219 -0.0124546 -0.0156205 -0.0136219 -0.0170654 -0.0143792 -0.017143 -0.0156205 -0.0186061 -0.017143 -0.0197016 -0.0186061 -0.0213636 -0.0156205 -0.0186061 -0.0170654 -0.0203035 -0.0186061 -0.0213636 -0.0203035 -0.0232849 0.00418608 -0.00156128 0.00531131 -0.00181529 -0.00156128 -0.00323135 -0.00181529 -0.00354498 0.00531131 -0.00181529 0.006608 -0.0021106 -0.00181529 -0.00354498 -0.0021106 -0.00391461 -0.00323135 -0.00656552 -0.00354498 -0.00724143 -0.00656552 -0.0100549 -0.00724143 -0.0110717 -0.00354498 -0.00724143 -0.00391461 -0.00803404 -0.00724143 -0.0110717 -0.00803404 -0.0122603 0.006608 -0.0021106 0.00809575 -0.00245374 -0.0021106 -0.00391461 -0.00245374 -0.00435241 0.00809575 -0.00245374 0.00979789 -0.00285319 -0.00245374 -0.00435241 -0.00285319 -0.00487505 -0.00391461 -0.00803404 -0.00435241 -0.00896688 -0.00803404 -0.0122603 -0.00896688 -0.0136536 -0.00435241 -0.00896688 -0.00487505 -0.0100716 -0.00896688 -0.0136536 -0.0100716 -0.0152959 -0.0100549 -0.0136219 -0.0110717 -0.0149812 -0.0136219 -0.0170654 -0.0149812 -0.0187415 -0.0110717 -0.0149812 -0.0122603 -0.0165635 -0.0149812 -0.0187415 -0.0165635 -0.0206835 -0.0170654 -0.0203035 -0.0187415 -0.0222643 -0.0203035 -0.0232849 -0.0222643 -0.0254949 -0.0187415 -0.0222643 -0.0206835 -0.0245246 -0.0222643 -0.0254949 -0.0245246 -0.0280292 -0.0122603 -0.0165635 -0.0136536 -0.018409 -0.0165635 -0.0206835 -0.018409 -0.0229357 -0.0136536 -0.018409 -0.0152959 -0.0205706 -0.018409 -0.0229357 -0.0205706 -0.0255551 -0.0206835 -0.0245246 -0.0229357 -0.0271298 -0.0245246 -0.0280292 -0.0271298 -0.0309313 -0.0229357 -0.0271298 -0.0255551 -0.0301369 -0.0271298 -0.0309313 -0.0301369 -0.0342547 -0.0170605 -0.0190954 -0.0182746 -0.0204441 -0.0190954 -0.0209105 -0.0204441 -0.0223773 -0.0182746 -0.0204441 -0.0197016 -0.0220259 -0.0204441 -0.0223773 -0.0220259 -0.024094 -0.0209105 -0.0224882 -0.0223773 -0.0240567 -0.0224882 -0.0238139 -0.0240567 -0.0254681 -0.0223773 -0.0240567 -0.024094 -0.0258889 -0.0240567 -0.0254681 -0.0258889 -0.0273973 -0.0197016 -0.0220259 -0.0213636 -0.0238628 -0.0220259 -0.024094 -0.0238628 -0.0260823 -0.0213636 -0.0238628 -0.0232849 -0.0259791 -0.0238628 -0.0260823 -0.0259791 -0.0283655 -0.024094 -0.0258889 -0.0260823 -0.0280061 -0.0258889 -0.0273973 -0.0280061 -0.029622 -0.0260823 -0.0280061 -0.0283655 -0.0304299 -0.0280061 -0.029622 -0.0304299 -0.0321625 -0.0238139 -0.0248757 -0.0254681 -0.0265999 -0.0248757 -0.0256637 -0.0265999 -0.0274427 -0.0254681 -0.0265999 -0.0273973 -0.0286084 -0.0265999 -0.0274427 -0.0286084 -0.0295134 -0.0256637 -0.0261701 -0.0274427 -0.0279888 -0.0261701 -0.026389 -0.0279888 -0.0282322 -0.0274427 -0.0279888 -0.0295134 -0.0301052 -0.0279888 -0.0282322 -0.0301052 -0.0303778 -0.0273973 -0.0286084 -0.029622 -0.0309209 -0.0286084 -0.0295134 -0.0309209 -0.0318952 -0.029622 -0.0309209 -0.0321625 -0.0335563 -0.0309209 -0.0318952 -0.0335563 -0.0346061 -0.0295134 -0.0301052 -0.0318952 -0.0325387 -0.0301052 -0.0303778 -0.0325387 -0.0328455 -0.0318952 -0.0325387 -0.0346061 -0.0353069 -0.0325387 -0.0328455 -0.0353069 -0.0356537 -0.0232849 -0.0259791 -0.0254949 -0.028403 -0.0259791 -0.0283655 -0.028403 -0.0309698 -0.0254949 -0.028403 -0.0280292 -0.031168 -0.028403 -0.0309698 -0.031168 -0.0339257 -0.0283655 -0.0304299 -0.0309698 -0.0331843 -0.0304299 -0.0321625 -0.0331843 -0.0350403 -0.0309698 -0.0331843 -0.0339257 -0.0362961 -0.0331843 -0.0350403 -0.0362961 -0.0382784 -0.0280292 -0.031168 -0.0309313 -0.0343138 -0.031168 -0.0339257 -0.0343138 -0.0372679 -0.0309313 -0.0343138 -0.0342547 -0.037888 -0.0343138 -0.0372679 -0.037888 -0.0410364 -0.0339257 -0.0362961 -0.0372679 -0.0397946 -0.0362961 -0.0382784 -0.0397946 -0.041901 -0.0372679 -0.0397946 -0.0410364 -0.0437119 -0.0397946 -0.041901 -0.0437119 -0.0459325 -0.0321625 -0.0335563 -0.0350403 -0.0365343 -0.0335563 -0.0346061 -0.0365343 -0.0376641 -0.0350403 -0.0365343 -0.0382784 -0.0398745 -0.0365343 -0.0376641 -0.0398745 -0.0410868 -0.0346061 -0.0353069 -0.0376641 -0.0384273 -0.0353069 -0.0356537 -0.0384273 -0.0388199 -0.0376641 -0.0384273 -0.0410868 -0.0419161 -0.0384273 -0.0388199 -0.0419161 -0.0423606 -0.0382784 -0.0398745 -0.041901 -0.0435965 -0.0398745 -0.0410868 -0.0435965 -0.04489 -0.041901 -0.0435965 -0.0459325 -0.0477182 -0.0435965 -0.04489 -0.0477182 -0.0490866 -0.0410868 -0.0419161 -0.04489 -0.0457873 -0.0419161 -0.0423606 -0.0457873 -0.0462895 -0.04489 -0.0457873 -0.0490866 -0.0500506 -0.0457873 -0.0462895 -0.0500506 -0.0506156 -0.000140772 -0.00014075 -0.00936142 -0.00932912 -0.00014075 -0.000138821 -0.00932912 -0.00918584 -0.00936142 -0.00932912 -0.0153111 -0.0152535 -0.00932912 -0.00918584 -0.0152535 -0.0150168 -0.000138821 -0.000134973 -0.00918584 -0.00893219 -0.000134973 -0.000129218 -0.00893219 -0.00857004 -0.00918584 -0.00893219 -0.0150168 -0.0146024 -0.00893219 -0.00857004 -0.0146024 -0.0140134 -0.0153111 -0.0152535 -0.0188007 -0.0187268 -0.0152535 -0.0150168 -0.0187268 -0.0184354 -0.0188007 -0.0187268 -0.0208439 -0.0207619 -0.0187268 -0.0184354 -0.0207619 -0.0204405 -0.0150168 -0.0146024 -0.0184354 -0.0179279 -0.0146024 -0.0140134 -0.0179279 -0.0172084 -0.0184354 -0.0179279 -0.0204405 -0.0198812 -0.0179279 -0.0172084 -0.0198812 -0.0190884 -0.000129218 -0.000121591 -0.00857004 -0.00810249 -0.000121591 -0.000112154 -0.00810249 -0.00753397 -0.00857004 -0.00810249 -0.0140134 -0.013255 -0.00810249 -0.00753397 -0.013255 -0.0123344 -0.000112154 -0.000100992 -0.00753397 -0.00687019 -0.000100992 -8.82108e-05 -0.00687019 -0.0061182 -0.00753397 -0.00687019 -0.0123344 -0.011261 -0.00687019 -0.0061182 -0.011261 -0.0100463 -0.0140134 -0.013255 -0.0172084 -0.0162832 -0.013255 -0.0123344 -0.0162832 -0.0151609 -0.0172084 -0.0162832 -0.0190884 -0.0180686 -0.0162832 -0.0151609 -0.0180686 -0.0168315 -0.0123344 -0.011261 -0.0151609 -0.0138532 -0.011261 -0.0100463 -0.0138532 -0.0123741 -0.0151609 -0.0138532 -0.0168315 -0.0153895 -0.0138532 -0.0123741 -0.0153895 -0.0137579 -0.0208439 -0.0207619 -0.0222375 -0.0221531 -0.0207619 -0.0204405 -0.0221531 -0.0218148 -0.0222375 -0.0221531 -0.0234767 -0.0233936 -0.0221531 -0.0218148 -0.0233936 -0.0230442 -0.0204405 -0.0198812 -0.0218148 -0.0212241 -0.0198812 -0.0190884 -0.0212241 -0.020385 -0.0218148 -0.0212241 -0.0230442 -0.0224295 -0.0212241 -0.020385 -0.0224295 -0.0215532 -0.0234767 -0.0233936 -0.0248211 -0.024742 -0.0233936 -0.0230442 -0.024742 -0.0243834 -0.0248211 -0.024742 -0.026389 -0.0263161 -0.024742 -0.0243834 -0.0263161 -0.0259491 -0.0230442 -0.0224295 -0.0243834 -0.0237459 -0.0224295 -0.0215532 -0.0237459 -0.0228321 -0.0243834 -0.0237459 -0.0259491 -0.0252874 -0.0237459 -0.0228321 -0.0252874 -0.024333 -0.0190884 -0.0180686 -0.020385 -0.0193042 -0.0180686 -0.0168315 -0.0193042 -0.0179914 -0.020385 -0.0193042 -0.0215532 -0.0204214 -0.0193042 -0.0179914 -0.0204214 -0.0190436 -0.0168315 -0.0153895 -0.0179914 -0.0164593 -0.0153895 -0.0137579 -0.0164593 -0.0147238 -0.0179914 -0.0164593 -0.0190436 -0.0174324 -0.0164593 -0.0147238 -0.0174324 -0.0156041 -0.0215532 -0.0204214 -0.0228321 -0.0216479 -0.0204214 -0.0190436 -0.0216479 -0.0202017 -0.0228321 -0.0216479 -0.024333 -0.0230902 -0.0216479 -0.0202017 -0.0230902 -0.0215668 -0.0190436 -0.0174324 -0.0202017 -0.018506 -0.0174324 -0.0156041 -0.018506 -0.0165767 -0.0202017 -0.018506 -0.0215668 -0.0197741 -0.018506 -0.0165767 -0.0197741 -0.017728 -8.82108e-05 -7.38789e-05 -0.0061182 -0.00528673 -7.38789e-05 -5.81632e-05 -0.00528673 -0.00438629 -0.0061182 -0.00528673 -0.0100463 -0.00870505 -0.00528673 -0.00438629 -0.00870505 -0.00725538 -5.81632e-05 -4.05387e-05 -0.00438629 -0.00343738 -4.05387e-05 -2.38381e-05 -0.00343738 -0.00245114 -0.00438629 -0.00343738 -0.00725538 -0.0057294 -0.00343738 -0.00245114 -0.0057294 -0.00415317 -0.0100463 -0.00870505 -0.0123741 -0.0107416 -0.00870505 -0.00725538 -0.0107416 -0.0089784 -0.0123741 -0.0107416 -0.0137579 -0.0119566 -0.0107416 -0.0089784 -0.0119566 -0.0100101 -0.00725538 -0.0057294 -0.0089784 -0.00712216 -0.0057294 -0.00415317 -0.00712216 -0.0052067 -0.0089784 -0.00712216 -0.0100101 -0.00795886 -0.00712216 -0.0052067 -0.00795886 -0.00583971 -2.38381e-05 -5.47899e-06 -0.00245114 -0.0015833 -5.47899e-06 6.89221e-05 -0.0015833 -0.00035637 -0.00245114 -0.0015833 -0.00415317 -0.00272523 -0.0015833 -0.00035637 -0.00272523 -0.000938325 6.89221e-05 -3.60477e-05 -0.00035637 -0.00186469 -3.60477e-05 0.0143819 -0.00186469 0.0127897 -0.00035637 -0.00186469 -0.000938325 -0.0021421 -0.00186469 0.0127897 -0.0021421 0.013446 -0.00415317 -0.00272523 -0.0052067 -0.00344255 -0.00272523 -0.000938325 -0.00344255 -0.0013275 -0.0052067 -0.00344255 -0.00583971 -0.00386882 -0.00344255 -0.0013275 -0.00386882 -0.00155286 -0.000938325 -0.0021421 -0.0013275 -0.00230495 -0.0021421 0.013446 -0.00230495 0.0133678 -0.0013275 -0.00230495 -0.00155286 -0.00238286 -0.00230495 0.0133678 -0.00238286 0.0134169 -0.0137579 -0.0119566 -0.0147238 -0.0128056 -0.0119566 -0.0100101 -0.0128056 -0.0107304 -0.0147238 -0.0128056 -0.0156041 -0.0135794 -0.0128056 -0.0107304 -0.0135794 -0.0113853 -0.0100101 -0.00795886 -0.0107304 -0.00853994 -0.00795886 -0.00583971 -0.00853994 -0.0062734 -0.0107304 -0.00853994 -0.0113853 -0.00906512 -0.00853994 -0.0062734 -0.00906512 -0.0066609 -0.0156041 -0.0135794 -0.0165767 -0.0144353 -0.0135794 -0.0113853 -0.0144353 -0.0121094 -0.0165767 -0.0144353 -0.017728 -0.0154501 -0.0144353 -0.0121094 -0.0154501 -0.0129693 -0.0113853 -0.00906512 -0.0121094 -0.00964502 -0.00906512 -0.0066609 -0.00964502 -0.00708795 -0.0121094 -0.00964502 -0.0129693 -0.0103348 -0.00964502 -0.00708795 -0.0103348 -0.00759713 -0.00583971 -0.00386882 -0.0062734 -0.00415364 -0.00386882 -0.00155286 -0.00415364 -0.00169102 -0.0062734 -0.00415364 -0.0066609 -0.00440488 -0.00415364 -0.00169102 -0.00440488 -0.00180738 -0.00155286 -0.00238286 -0.00169102 -0.00244381 -0.00238286 0.0134169 -0.00244381 0.0135842 -0.00169102 -0.00244381 -0.00180738 -0.00251478 -0.00244381 0.0135842 -0.00251478 0.0138517 -0.0066609 -0.00440488 -0.00708795 -0.00468241 -0.00440488 -0.00180738 -0.00468241 -0.00193489 -0.00708795 -0.00468241 -0.00759713 -0.00501516 -0.00468241 -0.00193489 -0.00501516 -0.00208844 -0.00180738 -0.00251478 -0.00193489 -0.00260468 -0.00251478 0.0138517 -0.00260468 0.0142238 -0.00193489 -0.00260468 -0.00208844 -0.00271836 -0.00260468 0.0142238 -0.00271836 0.0147036 -0.026389 -0.0263161 -0.0282322 -0.0281682 -0.0263161 -0.0259491 -0.0281682 -0.0277935 -0.0282322 -0.0281682 -0.0303778 -0.030326 -0.0281682 -0.0277935 -0.030326 -0.0299454 -0.0259491 -0.0252874 -0.0277935 -0.0271065 -0.0252874 -0.024333 -0.0271065 -0.0261076 -0.0277935 -0.0271065 -0.0299454 -0.029233 -0.0271065 -0.0261076 -0.029233 -0.0281869 -0.0303778 -0.030326 -0.0328455 -0.0328102 -0.030326 -0.0299454 -0.0328102 -0.0324271 -0.0328455 -0.0328102 -0.0356537 -0.0356404 -0.0328102 -0.0324271 -0.0356404 -0.0352601 -0.0299454 -0.029233 -0.0324271 -0.031691 -0.029233 -0.0281869 -0.031691 -0.0305975 -0.0324271 -0.031691 -0.0352601 -0.0345049 -0.031691 -0.0305975 -0.0345049 -0.0333667 -0.024333 -0.0230902 -0.0261076 -0.0247995 -0.0230902 -0.0215668 -0.0247995 -0.0231885 -0.0261076 -0.0247995 -0.0281869 -0.0268079 -0.0247995 -0.0231885 -0.0268079 -0.0250996 -0.0215668 -0.0197741 -0.0231885 -0.0212846 -0.0197741 -0.017728 -0.0212846 -0.0191028 -0.0231885 -0.0212846 -0.0250996 -0.0230702 -0.0212846 -0.0191028 -0.0230702 -0.0207331 -0.0281869 -0.0268079 -0.0305975 -0.029144 -0.0268079 -0.0250996 -0.029144 -0.0273308 -0.0305975 -0.029144 -0.0333667 -0.0318386 -0.029144 -0.0273308 -0.0318386 -0.029916 -0.0250996 -0.0230702 -0.0273308 -0.0251628 -0.0230702 -0.0207331 -0.0251628 -0.0226512 -0.0273308 -0.0251628 -0.029916 -0.0275991 -0.0251628 -0.0226512 -0.0275991 -0.0248949 -0.0356537 -0.0356404 -0.0388199 -0.0388357 -0.0356404 -0.0352601 -0.0388357 -0.0384661 -0.0388199 -0.0388357 -0.0423606 -0.0424142 -0.0388357 -0.0384661 -0.0424142 -0.0420664 -0.0352601 -0.0345049 -0.0384661 -0.0376999 -0.0345049 -0.0333667 -0.0376999 -0.0365244 -0.0384661 -0.0376999 -0.0420664 -0.0413021 -0.0376999 -0.0365244 -0.0413021 -0.0401025 -0.0423606 -0.0424142 -0.0462895 -0.0463913 -0.0424142 -0.0420664 -0.0463913 -0.0460804 -0.0462895 -0.0463913 -0.0506156 -0.050778 -0.0463913 -0.0460804 -0.050778 -0.0505236 -0.0420664 -0.0413021 -0.0460804 -0.045337 -0.0413021 -0.0401025 -0.045337 -0.0441348 -0.0460804 -0.045337 -0.0505236 -0.0498276 -0.045337 -0.0441348 -0.0498276 -0.0486545 -0.0333667 -0.0318386 -0.0365244 -0.0349265 -0.0318386 -0.029916 -0.0349265 -0.032895 -0.0365244 -0.0349265 -0.0401025 -0.0384467 -0.0349265 -0.032895 -0.0384467 -0.0363137 -0.029916 -0.0275991 -0.032895 -0.0304228 -0.0275991 -0.0248949 -0.0304228 -0.0275108 -0.032895 -0.0304228 -0.0363137 -0.0336865 -0.0304228 -0.0275108 -0.0336865 -0.0305563 -0.0401025 -0.0384467 -0.0441348 -0.0424423 -0.0384467 -0.0363137 -0.0424423 -0.0402258 -0.0441348 -0.