# vtk DataFile Version 3.0
#This file was generated by the deal.II library on 2026/1/5 at 14:19:29
ASCII
DATASET UNSTRUCTURED_GRID

POINTS 4096 double
0 0 0
0.03125 0 0
0 0.03125 0
0.03125 0.03125 0
0.03125 0 0
0.0625 0 0
0.03125 0.03125 0
0.0625 0.03125 0
0 0.03125 0
0.03125 0.03125 0
0 0.0625 0
0.03125 0.0625 0
0.03125 0.03125 0
0.0625 0.03125 0
0.03125 0.0625 0
0.0625 0.0625 0
0.0625 0 0
0.09375 0 0
0.0625 0.03125 0
0.09375 0.03125 0
0.09375 0 0
0.125 0 0
0.09375 0.03125 0
0.125 0.03125 0
0.0625 0.03125 0
0.09375 0.03125 0
0.0625 0.0625 0
0.09375 0.0625 0
0.09375 0.03125 0
0.125 0.03125 0
0.09375 0.0625 0
0.125 0.0625 0
0 0.0625 0
0.03125 0.0625 0
0 0.09375 0
0.03125 0.09375 0
0.03125 0.0625 0
0.0625 0.0625 0
0.03125 0.09375 0
0.0625 0.09375 0
0 0.09375 0
0.03125 0.09375 0
0 0.125 0
0.03125 0.125 0
0.03125 0.09375 0
0.0625 0.09375 0
0.03125 0.125 0
0.0625 0.125 0
0.0625 0.0625 0
0.09375 0.0625 0
0.0625 0.09375 0
0.09375 0.09375 0
0.09375 0.0625 0
0.125 0.0625 0
0.09375 0.09375 0
0.125 0.09375 0
0.0625 0.09375 0
0.09375 0.09375 0
0.0625 0.125 0
0.09375 0.125 0
0.09375 0.09375 0
0.125 0.09375 0
0.09375 0.125 0
0.125 0.125 0
0.125 0 0
0.15625 0 0
0.125 0.03125 0
0.15625 0.03125 0
0.15625 0 0
0.1875 0 0
0.15625 0.03125 0
0.1875 0.03125 0
0.125 0.03125 0
0.15625 0.03125 0
0.125 0.0625 0
0.15625 0.0625 0
0.15625 0.03125 0
0.1875 0.03125 0
0.15625 0.0625 0
0.1875 0.0625 0
0.1875 0 0
0.21875 0 0
0.1875 0.03125 0
0.21875 0.03125 0
0.21875 0 0
0.25 0 0
0.21875 0.03125 0
0.25 0.03125 0
0.1875 0.03125 0
0.21875 0.03125 0
0.1875 0.0625 0
0.21875 0.0625 0
0.21875 0.03125 0
0.25 0.03125 0
0.21875 0.0625 0
0.25 0.0625 0
0.125 0.0625 0
0.15625 0.0625 0
0.125 0.09375 0
0.15625 0.09375 0
0.15625 0.0625 0
0.1875 0.0625 0
0.15625 0.09375 0
0.1875 0.09375 0
0.125 0.09375 0
0.15625 0.09375 0
0.125 0.125 0
0.15625 0.125 0
0.15625 0.09375 0
0.1875 0.09375 0
0.15625 0.125 0
0.1875 0.125 0
0.1875 0.0625 0
0.21875 0.0625 0
0.1875 0.09375 0
0.21875 0.09375 0
0.21875 0.0625 0
0.25 0.0625 0
0.21875 0.09375 0
0.25 0.09375 0
0.1875 0.09375 0
0.21875 0.09375 0
0.1875 0.125 0
0.21875 0.125 0
0.21875 0.09375 0
0.25 0.09375 0
0.21875 0.125 0
0.25 0.125 0
0 0.125 0
0.03125 0.125 0
0 0.15625 0
0.03125 0.15625 0
0.03125 0.125 0
0.0625 0.125 0
0.03125 0.15625 0
0.0625 0.15625 0
0 0.15625 0
0.03125 0.15625 0
0 0.1875 0
0.03125 0.1875 0
0.03125 0.15625 0
0.0625 0.15625 0
0.03125 0.1875 0
0.0625 0.1875 0
0.0625 0.125 0
0.09375 0.125 0
0.0625 0.15625 0
0.09375 0.15625 0
0.09375 0.125 0
0.125 0.125 0
0.09375 0.15625 0
0.125 0.15625 0
0.0625 0.15625 0
0.09375 0.15625 0
0.0625 0.1875 0
0.09375 0.1875 0
0.09375 0.15625 0
0.125 0.15625 0
0.09375 0.1875 0
0.125 0.1875 0
0 0.1875 0
0.03125 0.1875 0
0 0.21875 0
0.03125 0.21875 0
0.03125 0.1875 0
0.0625 0.1875 0
0.03125 0.21875 0
0.0625 0.21875 0
0 0.21875 0
0.03125 0.21875 0
0 0.25 0
0.03125 0.25 0
0.03125 0.21875 0
0.0625 0.21875 0
0.03125 0.25 0
0.0625 0.25 0
0.0625 0.1875 0
0.09375 0.1875 0
0.0625 0.21875 0
0.09375 0.21875 0
0.09375 0.1875 0
0.125 0.1875 0
0.09375 0.21875 0
0.125 0.21875 0
0.0625 0.21875 0
0.09375 0.21875 0
0.0625 0.25 0
0.09375 0.25 0
0.09375 0.21875 0
0.125 0.21875 0
0.09375 0.25 0
0.125 0.25 0
0.125 0.125 0
0.15625 0.125 0
0.125 0.15625 0
0.15625 0.15625 0
0.15625 0.125 0
0.1875 0.125 0
0.15625 0.15625 0
0.1875 0.15625 0
0.125 0.15625 0
0.15625 0.15625 0
0.125 0.1875 0
0.15625 0.1875 0
0.15625 0.15625 0
0.1875 0.15625 0
0.15625 0.1875 0
0.1875 0.1875 0
0.1875 0.125 0
0.21875 0.125 0
0.1875 0.15625 0
0.21875 0.15625 0
0.21875 0.125 0
0.25 0.125 0
0.21875 0.15625 0
0.25 0.15625 0
0.1875 0.15625 0
0.21875 0.15625 0
0.1875 0.1875 0
0.21875 0.1875 0
0.21875 0.15625 0
0.25 0.15625 0
0.21875 0.1875 0
0.25 0.1875 0
0.125 0.1875 0
0.15625 0.1875 0
0.125 0.21875 0
0.15625 0.21875 0
0.15625 0.1875 0
0.1875 0.1875 0
0.15625 0.21875 0
0.1875 0.21875 0
0.125 0.21875 0
0.15625 0.21875 0
0.125 0.25 0
0.15625 0.25 0
0.15625 0.21875 0
0.1875 0.21875 0
0.15625 0.25 0
0.1875 0.25 0
0.1875 0.1875 0
0.21875 0.1875 0
0.1875 0.21875 0
0.21875 0.21875 0
0.21875 0.1875 0
0.25 0.1875 0
0.21875 0.21875 0
0.25 0.21875 0
0.1875 0.21875 0
0.21875 0.21875 0
0.1875 0.25 0
0.21875 0.25 0
0.21875 0.21875 0
0.25 0.21875 0
0.21875 0.25 0
0.25 0.25 0
0.25 0 0
0.28125 0 0
0.25 0.03125 0
0.28125 0.03125 0
0.28125 0 0
0.3125 0 0
0.28125 0.03125 0
0.3125 0.03125 0
0.25 0.03125 0
0.28125 0.03125 0
0.25 0.0625 0
0.28125 0.0625 0
0.28125 0.03125 0
0.3125 0.03125 0
0.28125 0.0625 0
0.3125 0.0625 0
0.3125 0 0
0.34375 0 0
0.3125 0.03125 0
0.34375 0.03125 0
0.34375 0 0
0.375 0 0
0.34375 0.03125 0
0.375 0.03125 0
0.3125 0.03125 0
0.34375 0.03125 0
0.3125 0.0625 0
0.34375 0.0625 0
0.34375 0.03125 0
0.375 0.03125 0
0.34375 0.0625 0
0.375 0.0625 0
0.25 0.0625 0
0.28125 0.0625 0
0.25 0.09375 0
0.28125 0.09375 0
0.28125 0.0625 0
0.3125 0.0625 0
0.28125 0.09375 0
0.3125 0.09375 0
0.25 0.09375 0
0.28125 0.09375 0
0.25 0.125 0
0.28125 0.125 0
0.28125 0.09375 0
0.3125 0.09375 0
0.28125 0.125 0
0.3125 0.125 0
0.3125 0.0625 0
0.34375 0.0625 0
0.3125 0.09375 0
0.34375 0.09375 0
0.34375 0.0625 0
0.375 0.0625 0
0.34375 0.09375 0
0.375 0.09375 0
0.3125 0.09375 0
0.34375 0.09375 0
0.3125 0.125 0
0.34375 0.125 0
0.34375 0.09375 0
0.375 0.09375 0
0.34375 0.125 0
0.375 0.125 0
0.375 0 0
0.40625 0 0
0.375 0.03125 0
0.40625 0.03125 0
0.40625 0 0
0.4375 0 0
0.40625 0.03125 0
0.4375 0.03125 0
0.375 0.03125 0
0.40625 0.03125 0
0.375 0.0625 0
0.40625 0.0625 0
0.40625 0.03125 0
0.4375 0.03125 0
0.40625 0.0625 0
0.4375 0.0625 0
0.4375 0 0
0.46875 0 0
0.4375 0.03125 0
0.46875 0.03125 0
0.46875 0 0
0.5 0 0
0.46875 0.03125 0
0.5 0.03125 0
0.4375 0.03125 0
0.46875 0.03125 0
0.4375 0.0625 0
0.46875 0.0625 0
0.46875 0.03125 0
0.5 0.03125 0
0.46875 0.0625 0
0.5 0.0625 0
0.375 0.0625 0
0.40625 0.0625 0
0.375 0.09375 0
0.40625 0.09375 0
0.40625 0.0625 0
0.4375 0.0625 0
0.40625 0.09375 0
0.4375 0.09375 0
0.375 0.09375 0
0.40625 0.09375 0
0.375 0.125 0
0.40625 0.125 0
0.40625 0.09375 0
0.4375 0.09375 0
0.40625 0.125 0
0.4375 0.125 0
0.4375 0.0625 0
0.46875 0.0625 0
0.4375 0.09375 0
0.46875 0.09375 0
0.46875 0.0625 0
0.5 0.0625 0
0.46875 0.09375 0
0.5 0.09375 0
0.4375 0.09375 0
0.46875 0.09375 0
0.4375 0.125 0
0.46875 0.125 0
0.46875 0.09375 0
0.5 0.09375 0
0.46875 0.125 0
0.5 0.125 0
0.25 0.125 0
0.28125 0.125 0
0.25 0.15625 0
0.28125 0.15625 0
0.28125 0.125 0
0.3125 0.125 0
0.28125 0.15625 0
0.3125 0.15625 0
0.25 0.15625 0
0.28125 0.15625 0
0.25 0.1875 0
0.28125 0.1875 0
0.28125 0.15625 0
0.3125 0.15625 0
0.28125 0.1875 0
0.3125 0.1875 0
0.3125 0.125 0
0.34375 0.125 0
0.3125 0.15625 0
0.34375 0.15625 0
0.34375 0.125 0
0.375 0.125 0
0.34375 0.15625 0
0.375 0.15625 0
0.3125 0.15625 0
0.34375 0.15625 0
0.3125 0.1875 0
0.34375 0.1875 0
0.34375 0.15625 0
0.375 0.15625 0
0.34375 0.1875 0
0.375 0.1875 0
0.25 0.1875 0
0.28125 0.1875 0
0.25 0.21875 0
0.28125 0.21875 0
0.28125 0.1875 0
0.3125 0.1875 0
0.28125 0.21875 0
0.3125 0.21875 0
0.25 0.21875 0
0.28125 0.21875 0
0.25 0.25 0
0.28125 0.25 0
0.28125 0.21875 0
0.3125 0.21875 0
0.28125 0.25 0
0.3125 0.25 0
0.3125 0.1875 0
0.34375 0.1875 0
0.3125 0.21875 0
0.34375 0.21875 0
0.34375 0.1875 0
0.375 0.1875 0
0.34375 0.21875 0
0.375 0.21875 0
0.3125 0.21875 0
0.34375 0.21875 0
0.3125 0.25 0
0.34375 0.25 0
0.34375 0.21875 0
0.375 0.21875 0
0.34375 0.25 0
0.375 0.25 0
0.375 0.125 0
0.40625 0.125 0
0.375 0.15625 0
0.40625 0.15625 0
0.40625 0.125 0
0.4375 0.125 0
0.40625 0.15625 0
0.4375 0.15625 0
0.375 0.15625 0
0.40625 0.15625 0
0.375 0.1875 0
0.40625 0.1875 0
0.40625 0.15625 0
0.4375 0.15625 0
0.40625 0.1875 0
0.4375 0.1875 0
0.4375 0.125 0
0.46875 0.125 0
0.4375 0.15625 0
0.46875 0.15625 0
0.46875 0.125 0
0.5 0.125 0
0.46875 0.15625 0
0.5 0.15625 0
0.4375 0.15625 0
0.46875 0.15625 0
0.4375 0.1875 0
0.46875 0.1875 0
0.46875 0.15625 0
0.5 0.15625 0
0.46875 0.1875 0
0.5 0.1875 0
0.375 0.1875 0
0.40625 0.1875 0
0.375 0.21875 0
0.40625 0.21875 0
0.40625 0.1875 0
0.4375 0.1875 0
0.40625 0.21875 0
0.4375 0.21875 0
0.375 0.21875 0
0.40625 0.21875 0
0.375 0.25 0
0.40625 0.25 0
0.40625 0.21875 0
0.4375 0.21875 0
0.40625 0.25 0
0.4375 0.25 0
0.4375 0.1875 0
0.46875 0.1875 0
0.4375 0.21875 0
0.46875 0.21875 0
0.46875 0.1875 0
0.5 0.1875 0
0.46875 0.21875 0
0.5 0.21875 0
0.4375 0.21875 0
0.46875 0.21875 0
0.4375 0.25 0
0.46875 0.25 0
0.46875 0.21875 0
0.5 0.21875 0
0.46875 0.25 0
0.5 0.25 0
0 0.25 0
0.03125 0.25 0
0 0.28125 0
0.03125 0.28125 0
0.03125 0.25 0
0.0625 0.25 0
0.03125 0.28125 0
0.0625 0.28125 0
0 0.28125 0
0.03125 0.28125 0
0 0.3125 0
0.03125 0.3125 0
0.03125 0.28125 0
0.0625 0.28125 0
0.03125 0.3125 0
0.0625 0.3125 0
0.0625 0.25 0
0.09375 0.25 0
0.0625 0.28125 0
0.09375 0.28125 0
0.09375 0.25 0
0.125 0.25 0
0.09375 0.28125 0
0.125 0.28125 0
0.0625 0.28125 0
0.09375 0.28125 0
0.0625 0.3125 0
0.09375 0.3125 0
0.09375 0.28125 0
0.125 0.28125 0
0.09375 0.3125 0
0.125 0.3125 0
0 0.3125 0
0.03125 0.3125 0
0 0.34375 0
0.03125 0.34375 0
0.03125 0.3125 0
0.0625 0.3125 0
0.03125 0.34375 0
0.0625 0.34375 0
0 0.34375 0
0.03125 0.34375 0
0 0.375 0
0.03125 0.375 0
0.03125 0.34375 0
0.0625 0.34375 0
0.03125 0.375 0
0.0625 0.375 0
0.0625 0.3125 0
0.09375 0.3125 0
0.0625 0.34375 0
0.09375 0.34375 0
0.09375 0.3125 0
0.125 0.3125 0
0.09375 0.34375 0
0.125 0.34375 0
0.0625 0.34375 0
0.09375 0.34375 0
0.0625 0.375 0
0.09375 0.375 0
0.09375 0.34375 0
0.125 0.34375 0
0.09375 0.375 0
0.125 0.375 0
0.125 0.25 0
0.15625 0.25 0
0.125 0.28125 0
0.15625 0.28125 0
0.15625 0.25 0
0.1875 0.25 0
0.15625 0.28125 0
0.1875 0.28125 0
0.125 0.28125 0
0.15625 0.28125 0
0.125 0.3125 0
0.15625 0.3125 0
0.15625 0.28125 0
0.1875 0.28125 0
0.15625 0.3125 0
0.1875 0.3125 0
0.1875 0.25 0
0.21875 0.25 0
0.1875 0.28125 0
0.21875 0.28125 0
0.21875 0.25 0
0.25 0.25 0
0.21875 0.28125 0
0.25 0.28125 0
0.1875 0.28125 0
0.21875 0.28125 0
0.1875 0.3125 0
0.21875 0.3125 0
0.21875 0.28125 0
0.25 0.28125 0
0.21875 0.3125 0
0.25 0.3125 0
0.125 0.3125 0
0.15625 0.3125 0
0.125 0.34375 0
0.15625 0.34375 0
0.15625 0.3125 0
0.1875 0.3125 0
0.15625 0.34375 0
0.1875 0.34375 0
0.125 0.34375 0
[...]
POINT_DATA 4096
SCALARS u_x double 1
LOOKUP_TABLE default
1.18368e-05 1.32769e-05 -5.96996e-05 -0.000208052 1.32769e-05 5.9496e-06 -0.000208052 -0.00077877 -5.96996e-05 -0.000208052 -0.000139543 -0.000391591 -0.000208052 -0.00077877 -0.000391591 -0.0013314 5.9496e-06 -1.30403e-05 -0.00077877 -0.00155589 -1.30403e-05 -3.32128e-05 -0.00155589 -0.00241143 -0.00077877 -0.00155589 -0.0013314 -0.00253845 -0.00155589 -0.00241143 -0.00253845 -0.00385057 -0.000139543 -0.000391591 -0.000123516 -0.000489147 -0.000391591 -0.0013314 -0.000489147 -0.00161602 -0.000123516 -0.000489147 9.52723e-06 -0.000548754 -0.000489147 -0.00161602 -0.000548754 -0.00174875 -0.0013314 -0.00253845 -0.00161602 -0.00304772 -0.00253845 -0.00385057 -0.00304772 -0.00458495 -0.00161602 -0.00304772 -0.00174875 -0.00330398 -0.00304772 -0.00458495 -0.00330398 -0.00495913 -3.32128e-05 -5.22622e-05 -0.00241143 -0.00326819 -5.22622e-05 -7.00009e-05 -0.00326819 -0.0040933 -0.00241143 -0.00326819 -0.00385057 -0.00516457 -0.00326819 -0.0040933 -0.00516457 -0.00643232 -7.00009e-05 -8.65723e-05 -0.0040933 -0.00487167 -8.65723e-05 -0.000101972 -0.00487167 -0.00559398 -0.0040933 -0.00487167 -0.00643232 -0.00762925 -0.00487167 -0.00559398 -0.00762925 -0.00873982 -0.00385057 -0.00516457 -0.00458495 -0.00611955 -0.00516457 -0.00643232 -0.00611955 -0.00759914 -0.00458495 -0.00611955 -0.00495913 -0.00660782 -0.00611955 -0.00759914 -0.00660782 -0.00819504 -0.00643232 -0.00762925 -0.00759914 -0.00899596 -0.00762925 -0.00873982 -0.00899596 -0.0102917 -0.00759914 -0.00899596 -0.00819504 -0.00969255 -0.00899596 -0.0102917 -0.00969255 -0.011081 9.52723e-06 -0.000548754 0.000260023 -0.000608358 -0.000548754 -0.00174875 -0.000608358 -0.00182976 0.000260023 -0.000608358 0.000627258 -0.000684879 -0.000608358 -0.00182976 -0.000684879 -0.00190853 -0.00174875 -0.00330398 -0.00182976 -0.00347755 -0.00330398 -0.00495913 -0.00347755 -0.00521768 -0.00182976 -0.00347755 -0.00190853 -0.00365356 -0.00347755 -0.00521768 -0.00365356 -0.00548038 0.000627258 -0.000684879 0.00111384 -0.000783988 -0.000684879 -0.00190853 -0.000783988 -0.0020028 0.00111384 -0.000783988 0.00172524 -0.000907847 -0.000783988 -0.0020028 -0.000907847 -0.00211812 -0.00190853 -0.00365356 -0.0020028 -0.00386446 -0.00365356 -0.00548038 -0.00386446 -0.0057934 -0.0020028 -0.00386446 -0.00211812 -0.00412158 -0.00386446 -0.0057934 -0.00412158 -0.00617337 -0.00495913 -0.00660782 -0.00521768 -0.00695024 -0.00660782 -0.00819504 -0.00695024 -0.00861584 -0.00521768 -0.00695024 -0.00548038 -0.00730049 -0.00695024 -0.00861584 -0.00730049 -0.00904807 -0.00819504 -0.00969255 -0.00861584 -0.010186 -0.00969255 -0.011081 -0.010186 -0.0116409 -0.00861584 -0.010186 -0.00904807 -0.0106941 -0.010186 -0.0116409 -0.0106941 -0.0122181 -0.00548038 -0.00730049 -0.0057934 -0.00771743 -0.00730049 -0.00904807 -0.00771743 -0.00956248 -0.0057934 -0.00771743 -0.00617337 -0.00822237 -0.00771743 -0.00956248 -0.00822237 -0.0101844 -0.00904807 -0.0106941 -0.00956248 -0.0112987 -0.0106941 -0.0122181 -0.0112987 -0.0129044 -0.00956248 -0.0112987 -0.0101844 -0.0120286 -0.0112987 -0.0129044 -0.0120286 -0.0137318 -0.000101972 -0.000116092 -0.00559398 -0.00625248 -0.000116092 -0.000128789 -0.00625248 -0.00684021 -0.00559398 -0.00625248 -0.00873982 -0.0097516 -0.00625248 -0.00684021 -0.0097516 -0.0106538 -0.000128789 -0.000139924 -0.00684021 -0.00735091 -0.000139924 -0.00014937 -0.00735091 -0.00777912 -0.00684021 -0.00735091 -0.0106538 -0.0114368 -0.00735091 -0.00777912 -0.0114368 -0.0120923 -0.00873982 -0.0097516 -0.0102917 -0.0114715 -0.0097516 -0.0106538 -0.0114715 -0.0125229 -0.0102917 -0.0114715 -0.011081 -0.0123448 -0.0114715 -0.0125229 -0.0123448 -0.0134705 -0.0106538 -0.0114368 -0.0125229 -0.0134347 -0.0114368 -0.0120923 -0.0134347 -0.0141975 -0.0125229 -0.0134347 -0.0134705 -0.0144462 -0.0134347 -0.0141975 -0.0144462 -0.0152621 -0.00014937 -0.000157007 -0.00777912 -0.00812021 -0.000157007 -0.000162735 -0.00812021 -0.00837043 -0.00777912 -0.00812021 -0.0120923 -0.0126135 -0.00812021 -0.00837043 -0.0126135 -0.0129947 -0.000162735 -0.000166472 -0.00837043 -0.00852692 -0.000166472 -0.000168161 -0.00852692 -0.00858773 -0.00837043 -0.00852692 -0.0129947 -0.0132318 -0.00852692 -0.00858773 -0.0132318 -0.0133219 -0.0120923 -0.0126135 -0.0141975 -0.0148032 -0.0126135 -0.0129947 -0.0148032 -0.0152457 -0.0141975 -0.0148032 -0.0152621 -0.0159099 -0.0148032 -0.0152457 -0.0159099 -0.0163829 -0.0129947 -0.0132318 -0.0152457 -0.0155201 -0.0132318 -0.0133219 -0.0155201 -0.0156232 -0.0152457 -0.0155201 -0.0163829 -0.0166763 -0.0155201 -0.0156232 -0.0166763 -0.0167866 -0.011081 -0.0123448 -0.0116409 -0.0129645 -0.0123448 -0.0134705 -0.0129645 -0.0141428 -0.0116409 -0.0129645 -0.0122181 -0.0136034 -0.0129645 -0.0141428 -0.0136034 -0.014836 -0.0134705 -0.0144462 -0.0141428 -0.0151639 -0.0144462 -0.0152621 -0.0151639 -0.0160175 -0.0141428 -0.0151639 -0.014836 -0.0159037 -0.0151639 -0.0160175 -0.0159037 -0.0167961 -0.0122181 -0.0136034 -0.0129044 -0.0143627 -0.0136034 -0.014836 -0.0143627 -0.015659 -0.0129044 -0.0143627 -0.0137318 -0.0152767 -0.0143627 -0.015659 -0.0152767 -0.0166485 -0.014836 -0.0159037 -0.015659 -0.0167812 -0.0159037 -0.0167961 -0.0167812 -0.017719 -0.015659 -0.0167812 -0.0166485 -0.017835 -0.0167812 -0.017719 -0.017835 -0.0188261 -0.0152621 -0.0159099 -0.0160175 -0.0166953 -0.0159099 -0.0163829 -0.0166953 -0.0171906 -0.0160175 -0.0166953 -0.0167961 -0.0175049 -0.0166953 -0.0171906 -0.0175049 -0.0180234 -0.0163829 -0.0166763 -0.0171906 -0.0174983 -0.0166763 -0.0167866 -0.0174983 -0.0176152 -0.0171906 -0.0174983 -0.0180234 -0.0183466 -0.0174983 -0.0176152 -0.0183466 -0.0184711 -0.0167961 -0.0175049 -0.017719 -0.0184641 -0.0175049 -0.0180234 -0.0184641 -0.0190099 -0.017719 -0.0184641 -0.0188261 -0.0196137 -0.0184641 -0.0190099 -0.0196137 -0.0201914 -0.0180234 -0.0183466 -0.0190099 -0.0193514 -0.0183466 -0.0184711 -0.0193514 -0.0194852 -0.0190099 -0.0193514 -0.0201914 -0.0205546 -0.0193514 -0.0194852 -0.0205546 -0.0206997 0.00172524 -0.000907847 0.00246919 -0.00105821 -0.000907847 -0.00211812 -0.00105821 -0.00225713 0.00246919 -0.00105821 0.00335543 -0.00123724 -0.00105821 -0.00225713 -0.00123724 -0.00242249 -0.00211812 -0.00412158 -0.00225713 -0.0044308 -0.00412158 -0.00617337 -0.0044308 -0.00662908 -0.00225713 -0.0044308 -0.00242249 -0.00479787 -0.0044308 -0.00662908 -0.00479787 -0.0071689 0.00335543 -0.00123724 0.00439578 -0.0014477 -0.00123724 -0.00242249 -0.0014477 -0.00261765 0.00439578 -0.0014477 0.00560433 -0.00169303 -0.0014477 -0.00261765 -0.00169303 -0.00284715 -0.00242249 -0.00479787 -0.00261765 -0.00522989 -0.00479787 -0.0071689 -0.00522989 -0.00780304 -0.00261765 -0.00522989 -0.00284715 -0.00573605 -0.00522989 -0.00780304 -0.00573605 -0.00854444 -0.00617337 -0.00822237 -0.00662908 -0.00882664 -0.00822237 -0.0101844 -0.00882664 -0.0109273 -0.00662908 -0.00882664 -0.0071689 -0.00954093 -0.00882664 -0.0109273 -0.00954093 -0.0118034 -0.0101844 -0.0120286 -0.0109273 -0.0128986 -0.0120286 -0.0137318 -0.0128986 -0.0147163 -0.0109273 -0.0128986 -0.0118034 -0.0139225 -0.0128986 -0.0147163 -0.0139225 -0.0158722 -0.0071689 -0.00954093 -0.00780304 -0.0103781 -0.00954093 -0.0118034 -0.0103781 -0.0128276 -0.00780304 -0.0103781 -0.00854444 -0.0113542 -0.0103781 -0.0128276 -0.0113542 -0.0140182 -0.0118034 -0.0139225 -0.0128276 -0.0151162 -0.0139225 -0.0158722 -0.0151162 -0.0172158 -0.0128276 -0.0151162 -0.0140182 -0.016499 -0.0151162 -0.0172158 -0.016499 -0.018767 0.00560433 -0.00169303 0.00699778 -0.00197753 -0.00169303 -0.00284715 -0.00197753 -0.00311699 0.00699778 -0.00197753 0.00859581 -0.00230654 -0.00197753 -0.00311699 -0.00230654 -0.00343512 -0.00284715 -0.00573605 -0.00311699 -0.00632822 -0.00573605 -0.00854444 -0.00632822 -0.00940976 -0.00311699 -0.00632822 -0.00343512 -0.0070219 -0.00632822 -0.00940976 -0.0070219 -0.0104206 0.00859581 -0.00230654 0.0104217 -0.00268681 -0.00230654 -0.00343512 -0.00268681 -0.00381224 0.0104217 -0.00268681 0.012503 -0.00312699 -0.00268681 -0.00381224 -0.00312699 -0.00426292 -0.00343512 -0.0070219 -0.00381224 -0.00783762 -0.0070219 -0.0104206 -0.00783762 -0.0116051 -0.00381224 -0.00783762 -0.00426292 -0.00880288 -0.00783762 -0.0116051 -0.00880288 -0.0130007 -0.00854444 -0.0113542 -0.00940976 -0.0124897 -0.0113542 -0.0140182 -0.0124897 -0.015398 -0.00940976 -0.0124897 -0.0104206 -0.0138109 -0.0124897 -0.015398 -0.0138109 -0.0169962 -0.0140182 -0.016499 -0.015398 -0.0180952 -0.016499 -0.018767 -0.0180952 -0.0205498 -0.015398 -0.0180952 -0.0169962 -0.0199346 -0.0180952 -0.0205498 -0.0199346 -0.0225934 -0.0104206 -0.0138109 -0.0116051 -0.0153516 -0.0138109 -0.0169962 -0.0153516 -0.0188495 -0.0116051 -0.0153516 -0.0130007 -0.0171561 -0.0153516 -0.0188495 -0.0171561 -0.0210052 -0.0169962 -0.0199346 -0.0188495 -0.0220545 -0.0199346 -0.0225934 -0.0220545 -0.0249333 -0.0188495 -0.0220545 -0.0210052 -0.0245018 -0.0220545 -0.0249333 -0.0245018 -0.0276132 -0.0137318 -0.0152767 -0.0147163 -0.0163623 -0.0152767 -0.0166485 -0.0163623 -0.0178216 -0.0147163 -0.0163623 -0.0158722 -0.0176339 -0.0163623 -0.0178216 -0.0176339 -0.0191927 -0.0166485 -0.017835 -0.0178216 -0.0190823 -0.017835 -0.0188261 -0.0190823 -0.0201346 -0.0178216 -0.0190823 -0.0191927 -0.0205371 -0.0190823 -0.0201346 -0.0205371 -0.0216581 -0.0158722 -0.0176339 -0.0172158 -0.0191077 -0.0176339 -0.0191927 -0.0191077 -0.0207775 -0.0172158 -0.0191077 -0.018767 -0.0208033 -0.0191077 -0.0207775 -0.0208033 -0.0225945 -0.0191927 -0.0205371 -0.0207775 -0.0222144 -0.0205371 -0.0216581 -0.0222144 -0.0234108 -0.0207775 -0.0222144 -0.0225945 -0.0241314 -0.0222144 -0.0234108 -0.0241314 -0.0254085 -0.0188261 -0.0196137 -0.0201346 -0.0209709 -0.0196137 -0.0201914 -0.0209709 -0.0215854 -0.0201346 -0.0209709 -0.0216581 -0.0225489 -0.0209709 -0.0215854 -0.0225489 -0.0232045 -0.0201914 -0.0205546 -0.0215854 -0.0219735 -0.0205546 -0.0206997 -0.0219735 -0.0221321 -0.0215854 -0.0219735 -0.0232045 -0.0236209 -0.0219735 -0.0221321 -0.0236209 -0.0237951 -0.0216581 -0.0225489 -0.0234108 -0.0243612 -0.0225489 -0.0232045 -0.0243612 -0.0250617 -0.0234108 -0.0243612 -0.0254085 -0.0264223 -0.0243612 -0.0250617 -0.0264223 -0.0271706 -0.0232045 -0.0236209 -0.0250617 -0.0255093 -0.0236209 -0.0237951 -0.0255093 -0.0257014 -0.0250617 -0.0255093 -0.0271706 -0.0276519 -0.0255093 -0.0257014 -0.0276519 -0.0278643 -0.018767 -0.0208033 -0.0205498 -0.0227436 -0.0208033 -0.0225945 -0.0227436 -0.0246649 -0.0205498 -0.0227436 -0.0225934 -0.0249557 -0.0227436 -0.0246649 -0.0249557 -0.0270133 -0.0225945 -0.0241314 -0.0246649 -0.0263074 -0.0241314 -0.0254085 -0.0263074 -0.0276684 -0.0246649 -0.0263074 -0.0270133 -0.0287638 -0.0263074 -0.0276684 -0.0287638 -0.0302089 -0.0225934 -0.0249557 -0.0249333 -0.0274723 -0.0249557 -0.0270133 -0.0274723 -0.029668 -0.0249333 -0.0274723 -0.0276132 -0.0303315 -0.0274723 -0.029668 -0.0303315 -0.0326611 -0.0270133 -0.0287638 -0.029668 -0.0315243 -0.0287638 -0.0302089 -0.0315243 -0.0330494 -0.029668 -0.0315243 -0.0326611 -0.0346147 -0.0315243 -0.0330494 -0.0346147 -0.0362095 -0.0254085 -0.0264223 -0.0276684 -0.0287475 -0.0264223 -0.0271706 -0.0287475 -0.0295452 -0.0276684 -0.0287475 -0.0302089 -0.0313526 -0.0287475 -0.0295452 -0.0313526 -0.0321991 -0.0271706 -0.0276519 -0.0295452 -0.0300618 -0.0276519 -0.0278643 -0.0300618 -0.0302969 -0.0295452 -0.0300618 -0.0321991 -0.0327517 -0.0300618 -0.0302969 -0.0327517 -0.0330115 -0.0302089 -0.0313526 -0.0330494 -0.0342532 -0.0313526 -0.0321991 -0.0342532 -0.0351452 -0.0330494 -0.0342532 -0.0362095 -0.0374637 -0.0342532 -0.0351452 -0.0374637 -0.0383937 -0.0321991 -0.0327517 -0.0351452 -0.0357325 -0.0327517 -0.0330115 -0.0357325 -0.0360186 -0.0351452 -0.0357325 -0.0383937 -0.039012 -0.0357325 -0.0360186 -0.039012 -0.0393254 -0.000168161 -0.000167759 -0.00858773 -0.0085518 -0.000167759 -0.000165243 -0.0085518 -0.00841906 -0.00858773 -0.0085518 -0.0133219 -0.0132635 -0.0085518 -0.00841906 -0.0132635 -0.0130568 -0.000165243 -0.000160618 -0.00841906 -0.0081904 -0.000160618 -0.000153918 -0.0081904 -0.0078677 -0.00841906 -0.0081904 -0.0130568 -0.012703 -0.0081904 -0.0078677 -0.012703 -0.0122054 -0.0133219 -0.0132635 -0.0156232 -0.0155535 -0.0132635 -0.0130568 -0.0155535 -0.0153111 -0.0156232 -0.0155535 -0.0167866 -0.0167124 -0.0155535 -0.0153111 -0.0167124 -0.0164535 -0.0130568 -0.012703 -0.0153111 -0.0148978 -0.012703 -0.0122054 -0.0148978 -0.0143169 -0.0153111 -0.0148978 -0.0164535 -0.0160118 -0.0148978 -0.0143169 -0.0160118 -0.0153909 -0.000153918 -0.000145197 -0.0078677 -0.00745389 -0.000145197 -0.000134533 -0.00745389 -0.00695291 -0.0078677 -0.00745389 -0.0122054 -0.0115683 -0.00745389 -0.00695291 -0.0115683 -0.0107978 -0.000134533 -0.000122031 -0.00695291 -0.00636978 -0.000122031 -0.000107832 -0.00636978 -0.00571051 -0.00695291 -0.00636978 -0.0107978 -0.00990159 -0.00636978 -0.00571051 -0.00990159 -0.00888896 -0.0122054 -0.0115683 -0.0143169 -0.0135736 -0.0115683 -0.0107978 -0.0135736 -0.012675 -0.0143169 -0.0135736 -0.0153909 -0.014596 -0.0135736 -0.012675 -0.014596 -0.0136346 -0.0107978 -0.00990159 -0.012675 -0.01163 -0.00990159 -0.00888896 -0.01163 -0.0104492 -0.012675 -0.01163 -0.0136346 -0.0125158 -0.01163 -0.0104492 -0.0125158 -0.011251 -0.0167866 -0.0167124 -0.0176152 -0.0175394 -0.0167124 -0.0164535 -0.0175394 -0.0172709 -0.0176152 -0.0175394 -0.0184711 -0.018395 -0.0175394 -0.0172709 -0.018395 -0.018118 -0.0164535 -0.0160118 -0.0172709 -0.0168113 -0.0160118 -0.0153909 -0.0168113 -0.0161641 -0.0172709 -0.0168113 -0.018118 -0.0176417 -0.0168113 -0.0161641 -0.0176417 -0.0169691 -0.0184711 -0.018395 -0.0194852 -0.0194094 -0.018395 -0.018118 -0.0194094 -0.0191234 -0.0194852 -0.0194094 -0.0206997 -0.0206248 -0.0194094 -0.0191234 -0.0206248 -0.0203289 -0.018118 -0.0176417 -0.0191234 -0.0186283 -0.0176417 -0.0169691 -0.0186283 -0.0179269 -0.0191234 -0.0186283 -0.0203289 -0.0198126 -0.0186283 -0.0179269 -0.0198126 -0.0190781 -0.0153909 -0.014596 -0.0161641 -0.0153345 -0.014596 -0.0136346 -0.0153345 -0.0143299 -0.0161641 -0.0153345 -0.0169691 -0.0161052 -0.0153345 -0.0143299 -0.0161052 -0.0150571 -0.0136346 -0.0125158 -0.0143299 -0.0131595 -0.0125158 -0.011251 -0.0131595 -0.0118349 -0.0143299 -0.0131595 -0.0150571 -0.0138342 -0.0131595 -0.0118349 -0.0138342 -0.0124478 -0.0169691 -0.0161052 -0.0179269 -0.0170236 -0.0161052 -0.0150571 -0.0170236 -0.0159253 -0.0179269 -0.0170236 -0.0190781 -0.0181293 -0.0170236 -0.0159253 -0.0181293 -0.0169723 -0.0150571 -0.0138342 -0.0159253 -0.0146408 -0.0138342 -0.0124478 -0.0146408 -0.0131818 -0.0159253 -0.0146408 -0.0169723 -0.0156154 -0.0146408 -0.0131818 -0.0156154 -0.0140701 -0.000107832 -9.20473e-05 -0.00571051 -0.00498229 -9.20473e-05 -7.49489e-05 -0.00498229 -0.00419234 -0.00571051 -0.00498229 -0.00888896 -0.00777091 -0.00498229 -0.00419234 -0.00777091 -0.00655925 -7.49489e-05 -5.58894e-05 -0.00419234 -0.0033556 -5.58894e-05 -3.82106e-05 -0.0033556 -0.00246325 -0.00419234 -0.0033556 -0.00655925 -0.00527527 -0.0033556 -0.00246325 -0.00527527 -0.00391586 -0.00888896 -0.00777091 -0.0104492 -0.00914547 -0.00777091 -0.00655925 -0.00914547 -0.00773284 -0.0104492 -0.00914547 -0.011251 -0.00985383 -0.00914547 -0.00773284 -0.00985383 -0.00833923 -0.00655925 -0.00527527 -0.00773284 -0.00623541 -0.00527527 -0.00391586 -0.00623541 -0.00465384 -0.00773284 -0.00623541 -0.00833923 -0.00673258 -0.00623541 -0.00465384 -0.00673258 -0.00503564 -3.82106e-05 -1.77824e-05 -0.00246325 -0.00167838 -1.77824e-05 7.64899e-05 -0.00167838 -0.000340466 -0.00246325 -0.00167838 -0.00391586 -0.0026818 -0.00167838 -0.000340466 -0.0026818 -0.000851055 7.64899e-05 -5.13713e-05 -0.000340466 -0.0023572 -5.13713e-05 0.0180346 -0.0023572 0.0160495 -0.000340466 -0.0023572 -0.000851055 -0.00264519 -0.0023572 0.0160495 -0.00264519 0.0169318 -0.00391586 -0.0026818 -0.00465384 -0.00319658 -0.0026818 -0.000851055 -0.00319658 -0.00113239 -0.00465384 -0.00319658 -0.00503564 -0.0034595 -0.00319658 -0.00113239 -0.0034595 -0.00127103 -0.000851055 -0.00264519 -0.00113239 -0.00279398 -0.00264519 0.0169318 -0.00279398 0.0168981 -0.00113239 -0.00279398 -0.00127103 -0.00285719 -0.00279398 0.0168981 -0.00285719 0.0170222 -0.011251 -0.00985383 -0.0118349 -0.0103701 -0.00985383 -0.00833923 -0.0103701 -0.00878068 -0.0118349 -0.0103701 -0.0124478 -0.0109124 -0.0103701 -0.00878068 -0.0109124 -0.00924389 -0.00833923 -0.00673258 -0.00878068 -0.00709267 -0.00673258 -0.00503564 -0.00709267 -0.00530824 -0.00878068 -0.00709267 -0.00924389 -0.00746927 -0.00709267 -0.00530824 -0.00746927 -0.00559139 -0.0124478 -0.0109124 -0.0131818 -0.0115625 -0.0109124 -0.00924389 -0.0115625 -0.00979965 -0.0131818 -0.0115625 -0.0140701 -0.0123508 -0.0115625 -0.00979965 -0.0123508 -0.0104746 -0.00924389 -0.00746927 -0.00979965 -0.00792132 -0.00746927 -0.00559139 -0.00792132 -0.00593158 -0.00979965 -0.00792132 -0.0104746 -0.00847135 -0.00792132 -0.00593158 -0.00847135 -0.00634653 -0.00503564 -0.0034595 -0.00530824 -0.00364275 -0.0034595 -0.00127103 -0.00364275 -0.00135584 -0.00530824 -0.00364275 -0.00559139 -0.00383245 -0.00364275 -0.00135584 -0.00383245 -0.00144106 -0.00127103 -0.00285719 -0.00135584 -0.0029168 -0.00285719 0.0170222 -0.0029168 0.0172837 -0.00135584 -0.0029168 -0.00144106 -0.00299666 -0.0029168 0.0172837 -0.00299666 0.0176603 -0.00559139 -0.00383245 -0.00593158 -0.00406173 -0.00383245 -0.00144106 -0.00406173 -0.00154457 -0.00593158 -0.00406173 -0.00634653 -0.00434271 -0.00406173 -0.00154457 -0.00434271 -0.00167215 -0.00144106 -0.00299666 -0.00154457 -0.0031004 -0.00299666 0.0176603 -0.0031004 0.0181595 -0.00154457 -0.0031004 -0.00167215 -0.00323043 -0.0031004 0.0181595 -0.00323043 0.0187863 -0.0206997 -0.0206248 -0.0221321 -0.0220588 -0.0206248 -0.0203289 -0.0220588 -0.0217525 -0.0221321 -0.0220588 -0.0237951 -0.0237247 -0.0220588 -0.0217525 -0.0237247 -0.0234081 -0.0203289 -0.0198126 -0.0217525 -0.021213 -0.0198126 -0.0190781 -0.021213 -0.0204417 -0.0217525 -0.021213 -0.0234081 -0.0228442 -0.021213 -0.0204417 -0.0228442 -0.0220332 -0.0237951 -0.0237247 -0.0257014 -0.0256357 -0.0237247 -0.0234081 -0.0256357 -0.0253098 -0.0257014 -0.0256357 -0.0278643 -0.0278055 -0.0256357 -0.0253098 -0.0278055 -0.0274725 -0.0234081 -0.0228442 -0.0253098 -0.0247215 -0.0228442 -0.0220332 -0.0247215 -0.0238694 -0.0253098 -0.0247215 -0.0274725 -0.0268615 -0.0247215 -0.0238694 -0.0268615 -0.0259689 -0.0190781 -0.0181293 -0.0204417 -0.0194415 -0.0181293 -0.0169723 -0.0194415 -0.0182174 -0.0204417 -0.0194415 -0.0220332 -0.0209766 -0.0194415 -0.0182174 -0.0209766 -0.0196779 -0.0169723 -0.0156154 -0.0182174 -0.0167771 -0.0156154 -0.0140701 -0.0167771 -0.0151313 -0.0182174 -0.0167771 -0.0196779 -0.0181436 -0.0167771 -0.0151313 -0.0181436 -0.0163833 -0.0220332 -0.0209766 -0.0238694 -0.0227529 -0.0209766 -0.0196779 -0.0227529 -0.0213736 -0.0238694 -0.0227529 -0.0259689 -0.0247913 -0.0227529 -0.0213736 -0.0247913 -0.0233271 -0.0196779 -0.0181436 -0.0213736 -0.0197356 -0.0181436 -0.0163833 -0.0197356 -0.0178471 -0.0213736 -0.0197356 -0.0233271 -0.0215776 -0.0197356 -0.0178471 -0.0215776 -0.0195481 -0.0278643 -0.0278055 -0.0302969 -0.0302481 -0.0278055 -0.0274725 -0.0302481 -0.0299116 -0.0302969 -0.0302481 -0.0330115 -0.0329767 -0.0302481 -0.0299116 -0.0329767 -0.0326424 -0.0274725 -0.0268615 -0.0299116 -0.0292819 -0.0268615 -0.0259689 -0.0292819 -0.028352 -0.0299116 -0.0292819 -0.0326424 -0.0320006 -0.0292819 -0.028352 -0.0320006 -0.0310408 -0.0330115 -0.0329767 -0.0360186 -0.0360027 -0.0329767 -0.0326424 -0.0360027 -0.0356786 -0.0360186 -0.0360027 -0.0393254 -0.0393342 -0.0360027 -0.0356786 -0.0393342 -0.0390315 -0.0326424 -0.0320006 -0.0356786 -0.0350356 -0.0320006 -0.0310408 -0.0350356 -0.034058 -0.0356786 -0.0350356 -0.0390315 -0.0384026 -0.0350356 -0.034058 -0.0384026 -0.0374263 -0.0259689 -0.0247913 -0.028352 -0.0271152 -0.0247913 -0.0233271 -0.0271152 -0.0255652 -0.028352 -0.0271152 -0.0310408 -0.0297509 -0.0271152 -0.0255652 -0.0297509 -0.0281188 -0.0233271 -0.0215776 -0.0255652 -0.023699 -0.0215776 -0.0195481 -0.023699 -0.0215177 -0.0255652 -0.023699 -0.0281188 -0.0261349 -0.023699 -0.0215177 -0.0261349 