# vtk DataFile Version 3.0
#This file was generated by the deal.II library on 2026/1/5 at 14:42:01
ASCII
DATASET UNSTRUCTURED_GRID

POINTS 1744 double
0 0 0
0.0625 0 0
0 0.0625 0
0.0625 0.0625 0
0.0625 0 0
0.125 0 0
0.0625 0.0625 0
0.125 0.0625 0
0 0.0625 0
0.0625 0.0625 0
0 0.125 0
0.0625 0.125 0
0.0625 0.0625 0
0.125 0.0625 0
0.0625 0.125 0
0.125 0.125 0
0.125 0 0
0.1875 0 0
0.125 0.0625 0
0.1875 0.0625 0
0.1875 0 0
0.25 0 0
0.1875 0.0625 0
0.25 0.0625 0
0.125 0.0625 0
0.1875 0.0625 0
0.125 0.125 0
0.1875 0.125 0
0.1875 0.0625 0
0.25 0.0625 0
0.1875 0.125 0
0.25 0.125 0
0 0.125 0
0.0625 0.125 0
0 0.1875 0
0.0625 0.1875 0
0.0625 0.125 0
0.125 0.125 0
0.0625 0.1875 0
0.125 0.1875 0
0 0.1875 0
0.0625 0.1875 0
0 0.25 0
0.0625 0.25 0
0.0625 0.1875 0
0.125 0.1875 0
0.0625 0.25 0
0.125 0.25 0
0.125 0.125 0
0.1875 0.125 0
0.125 0.1875 0
0.1875 0.1875 0
0.1875 0.125 0
0.25 0.125 0
0.1875 0.1875 0
0.25 0.1875 0
0.125 0.1875 0
0.1875 0.1875 0
0.125 0.25 0
0.1875 0.25 0
0.1875 0.1875 0
0.25 0.1875 0
0.1875 0.25 0
0.25 0.25 0
0.25 0 0
0.3125 0 0
0.25 0.0625 0
0.3125 0.0625 0
0.3125 0 0
0.375 0 0
0.3125 0.0625 0
0.375 0.0625 0
0.25 0.0625 0
0.3125 0.0625 0
0.25 0.125 0
0.3125 0.125 0
0.3125 0.0625 0
0.375 0.0625 0
0.3125 0.125 0
0.375 0.125 0
0.375 0 0
0.4375 0 0
0.375 0.0625 0
0.4375 0.0625 0
0.4375 0 0
0.5 0 0
0.4375 0.0625 0
0.5 0.0625 0
0.375 0.0625 0
0.4375 0.0625 0
0.375 0.125 0
0.4375 0.125 0
0.4375 0.0625 0
0.5 0.0625 0
0.4375 0.125 0
0.5 0.125 0
0.25 0.125 0
0.3125 0.125 0
0.25 0.1875 0
0.3125 0.1875 0
0.3125 0.125 0
0.375 0.125 0
0.3125 0.1875 0
0.375 0.1875 0
0.25 0.1875 0
0.3125 0.1875 0
0.25 0.25 0
0.3125 0.25 0
0.3125 0.1875 0
0.375 0.1875 0
0.3125 0.25 0
0.375 0.25 0
0.375 0.125 0
0.4375 0.125 0
0.375 0.1875 0
0.4375 0.1875 0
0.4375 0.125 0
0.5 0.125 0
0.4375 0.1875 0
0.5 0.1875 0
0.375 0.1875 0
0.4375 0.1875 0
0.375 0.25 0
0.4375 0.25 0
0.4375 0.1875 0
0.5 0.1875 0
0.4375 0.25 0
0.5 0.25 0
0 0.25 0
0.0625 0.25 0
0 0.3125 0
0.0625 0.3125 0
0.0625 0.25 0
0.125 0.25 0
0.0625 0.3125 0
0.125 0.3125 0
0 0.3125 0
0.0625 0.3125 0
0 0.375 0
0.0625 0.375 0
0.0625 0.3125 0
0.125 0.3125 0
0.0625 0.375 0
0.125 0.375 0
0.125 0.25 0
0.1875 0.25 0
0.125 0.3125 0
0.1875 0.3125 0
0.1875 0.25 0
0.25 0.25 0
0.1875 0.3125 0
0.25 0.3125 0
0.125 0.3125 0
0.1875 0.3125 0
0.125 0.375 0
0.1875 0.375 0
0.1875 0.3125 0
0.25 0.3125 0
0.1875 0.375 0
0.25 0.375 0
0 0.375 0
0.0625 0.375 0
0 0.4375 0
0.0625 0.4375 0
0.0625 0.375 0
0.125 0.375 0
0.0625 0.4375 0
0.125 0.4375 0
0 0.4375 0
0.0625 0.4375 0
0 0.5 0
0.0625 0.5 0
0.0625 0.4375 0
0.125 0.4375 0
0.0625 0.5 0
0.125 0.5 0
0.125 0.375 0
0.1875 0.375 0
0.125 0.4375 0
0.1875 0.4375 0
0.1875 0.375 0
0.25 0.375 0
0.1875 0.4375 0
0.25 0.4375 0
0.125 0.4375 0
0.1875 0.4375 0
0.125 0.5 0
0.1875 0.5 0
0.1875 0.4375 0
0.25 0.4375 0
0.1875 0.5 0
0.25 0.5 0
0.25 0.25 0
0.3125 0.25 0
0.25 0.3125 0
0.3125 0.3125 0
0.3125 0.25 0
0.375 0.25 0
0.3125 0.3125 0
0.375 0.3125 0
0.25 0.3125 0
0.3125 0.3125 0
0.25 0.375 0
0.3125 0.375 0
0.3125 0.3125 0
0.375 0.3125 0
0.3125 0.375 0
0.375 0.375 0
0.375 0.25 0
0.4375 0.25 0
0.375 0.3125 0
0.4375 0.3125 0
0.4375 0.25 0
0.5 0.25 0
0.4375 0.3125 0
0.5 0.3125 0
0.375 0.3125 0
0.4375 0.3125 0
0.375 0.375 0
0.4375 0.375 0
0.4375 0.3125 0
0.5 0.3125 0
0.4375 0.375 0
0.5 0.375 0
0.25 0.375 0
0.3125 0.375 0
0.25 0.4375 0
0.3125 0.4375 0
0.3125 0.375 0
0.375 0.375 0
0.3125 0.4375 0
0.375 0.4375 0
0.25 0.4375 0
0.3125 0.4375 0
0.25 0.5 0
0.3125 0.5 0
0.3125 0.4375 0
0.375 0.4375 0
0.3125 0.5 0
0.375 0.5 0
0.375 0.375 0
0.4375 0.375 0
0.375 0.4375 0
0.4375 0.4375 0
0.4375 0.375 0
0.5 0.375 0
0.4375 0.4375 0
0.5 0.4375 0
0.375 0.4375 0
0.4375 0.4375 0
0.375 0.5 0
0.4375 0.5 0
0.4375 0.4375 0
0.5 0.4375 0
0.4375 0.5 0
0.5 0.5 0
0.5 0 0
0.5625 0 0
0.5 0.0625 0
0.5625 0.0625 0
0.5625 0 0
0.625 0 0
0.5625 0.0625 0
0.625 0.0625 0
0.5 0.0625 0
0.5625 0.0625 0
0.5 0.125 0
0.5625 0.125 0
0.5625 0.0625 0
0.625 0.0625 0
0.5625 0.125 0
0.625 0.125 0
0.625 0 0
0.6875 0 0
0.625 0.0625 0
0.6875 0.0625 0
0.6875 0 0
0.75 0 0
0.6875 0.0625 0
0.75 0.0625 0
0.625 0.0625 0
0.6875 0.0625 0
0.625 0.125 0
0.6875 0.125 0
0.6875 0.0625 0
0.75 0.0625 0
0.6875 0.125 0
0.75 0.125 0
0.5 0.125 0
0.5625 0.125 0
0.5 0.1875 0
0.5625 0.1875 0
0.5625 0.125 0
0.625 0.125 0
0.5625 0.1875 0
0.625 0.1875 0
0.5 0.1875 0
0.5625 0.1875 0
0.5 0.25 0
0.5625 0.25 0
0.5625 0.1875 0
0.625 0.1875 0
0.5625 0.25 0
0.625 0.25 0
0.625 0.125 0
0.6875 0.125 0
0.625 0.1875 0
0.6875 0.1875 0
0.6875 0.125 0
0.75 0.125 0
0.6875 0.1875 0
0.75 0.1875 0
0.625 0.1875 0
0.6875 0.1875 0
0.625 0.25 0
0.6875 0.25 0
0.6875 0.1875 0
0.75 0.1875 0
0.6875 0.25 0
0.75 0.25 0
0.75 0 0
0.8125 0 0
0.75 0.0625 0
0.8125 0.0625 0
0.8125 0 0
0.875 0 0
0.8125 0.0625 0
0.875 0.0625 0
0.75 0.0625 0
0.8125 0.0625 0
0.75 0.125 0
0.8125 0.125 0
0.8125 0.0625 0
0.875 0.0625 0
0.8125 0.125 0
0.875 0.125 0
0.75 0.125 0
0.8125 0.125 0
0.75 0.1875 0
0.8125 0.1875 0
0.8125 0.125 0
0.875 0.125 0
0.8125 0.1875 0
0.875 0.1875 0
0.75 0.1875 0
0.8125 0.1875 0
0.75 0.25 0
0.8125 0.25 0
0.8125 0.1875 0
0.875 0.1875 0
0.8125 0.25 0
0.875 0.25 0
0.5 0.25 0
0.5625 0.25 0
0.5 0.3125 0
0.5625 0.3125 0
0.5625 0.25 0
0.625 0.25 0
0.5625 0.3125 0
0.625 0.3125 0
0.5 0.3125 0
0.5625 0.3125 0
0.5 0.375 0
0.5625 0.375 0
0.5625 0.3125 0
0.625 0.3125 0
0.5625 0.375 0
0.625 0.375 0
0.625 0.25 0
0.6875 0.25 0
0.625 0.3125 0
0.6875 0.3125 0
0.6875 0.25 0
0.75 0.25 0
0.6875 0.3125 0
0.75 0.3125 0
0.625 0.3125 0
0.6875 0.3125 0
0.625 0.375 0
0.6875 0.375 0
0.6875 0.3125 0
0.75 0.3125 0
0.6875 0.375 0
0.75 0.375 0
0.5 0.375 0
0.5625 0.375 0
0.5 0.4375 0
0.5625 0.4375 0
0.5625 0.375 0
0.625 0.375 0
0.5625 0.4375 0
0.625 0.4375 0
0.5 0.4375 0
0.5625 0.4375 0
0.5 0.5 0
0.5625 0.5 0
0.5625 0.4375 0
0.625 0.4375 0
0.5625 0.5 0
0.625 0.5 0
0.625 0.375 0
0.6875 0.375 0
0.625 0.4375 0
0.6875 0.4375 0
0.6875 0.375 0
0.75 0.375 0
0.6875 0.4375 0
0.75 0.4375 0
0.625 0.4375 0
0.6875 0.4375 0
0.625 0.5 0
0.6875 0.5 0
0.6875 0.4375 0
0.75 0.4375 0
0.6875 0.5 0
0.75 0.5 0
0.75 0.25 0
0.8125 0.25 0
0.75 0.3125 0
0.8125 0.3125 0
0.8125 0.25 0
0.875 0.25 0
0.8125 0.3125 0
0.875 0.3125 0
0.75 0.3125 0
0.8125 0.3125 0
0.75 0.375 0
0.8125 0.375 0
0.8125 0.3125 0
0.875 0.3125 0
0.8125 0.375 0
0.875 0.375 0
0.75 0.375 0
0.8125 0.375 0
0.75 0.4375 0
0.8125 0.4375 0
0.8125 0.375 0
0.875 0.375 0
0.8125 0.4375 0
0.875 0.4375 0
0.75 0.4375 0
0.8125 0.4375 0
0.75 0.5 0
0.8125 0.5 0
0.8125 0.4375 0
0.875 0.4375 0
0.8125 0.5 0
0.875 0.5 0
0 0.5 0
0.0625 0.5 0
0 0.5625 0
0.0625 0.5625 0
0.0625 0.5 0
0.125 0.5 0
0.0625 0.5625 0
0.125 0.5625 0
0 0.5625 0
0.0625 0.5625 0
0 0.625 0
0.0625 0.625 0
0.0625 0.5625 0
0.125 0.5625 0
0.0625 0.625 0
0.125 0.625 0
0.125 0.5 0
0.1875 0.5 0
0.125 0.5625 0
0.1875 0.5625 0
0.1875 0.5 0
0.25 0.5 0
0.1875 0.5625 0
0.25 0.5625 0
0.125 0.5625 0
0.1875 0.5625 0
0.125 0.625 0
0.1875 0.625 0
0.1875 0.5625 0
0.25 0.5625 0
0.1875 0.625 0
0.25 0.625 0
0 0.625 0
0.0625 0.625 0
0 0.6875 0
0.0625 0.6875 0
0.0625 0.625 0
0.125 0.625 0
0.0625 0.6875 0
0.125 0.6875 0
0 0.6875 0
0.0625 0.6875 0
0 0.75 0
0.0625 0.75 0
0.0625 0.6875 0
0.125 0.6875 0
0.0625 0.75 0
0.125 0.75 0
0.125 0.625 0
0.1875 0.625 0
0.125 0.6875 0
0.1875 0.6875 0
0.1875 0.625 0
0.25 0.625 0
0.1875 0.6875 0
0.25 0.6875 0
0.125 0.6875 0
0.1875 0.6875 0
0.125 0.75 0
0.1875 0.75 0
0.1875 0.6875 0
0.25 0.6875 0
0.1875 0.75 0
0.25 0.75 0
0.25 0.5 0
0.3125 0.5 0
0.25 0.5625 0
0.3125 0.5625 0
0.3125 0.5 0
0.375 0.5 0
0.3125 0.5625 0
0.375 0.5625 0
0.25 0.5625 0
0.3125 0.5625 0
0.25 0.625 0
0.3125 0.625 0
0.3125 0.5625 0
0.375 0.5625 0
0.3125 0.625 0
0.375 0.625 0
0.375 0.5 0
0.4375 0.5 0
0.375 0.5625 0
0.4375 0.5625 0
0.4375 0.5 0
0.5 0.5 0
0.4375 0.5625 0
0.5 0.5625 0
0.375 0.5625 0
0.4375 0.5625 0
0.375 0.625 0
0.4375 0.625 0
0.4375 0.5625 0
0.5 0.5625 0
0.4375 0.625 0
0.5 0.625 0
0.25 0.625 0
0.3125 0.625 0
0.25 0.6875 0
0.3125 0.6875 0
0.3125 0.625 0
0.375 0.625 0
0.3125 0.6875 0
0.375 0.6875 0
0.25 0.6875 0
0.3125 0.6875 0
0.25 0.75 0
0.3125 0.75 0
0.3125 0.6875 0
0.375 0.6875 0
0.3125 0.75 0
0.375 0.75 0
0.375 0.625 0
0.4375 0.625 0
0.375 0.6875 0
0.4375 0.6875 0
0.4375 0.625 0
0.5 0.625 0
0.4375 0.6875 0
0.5 0.6875 0
0.375 0.6875 0
0.4375 0.6875 0
0.375 0.75 0
0.4375 0.75 0
0.4375 0.6875 0
0.5 0.6875 0
0.4375 0.75 0
0.5 0.75 0
0 0.75 0
0.0625 0.75 0
0 0.8125 0
0.0625 0.8125 0
0.0625 0.75 0
0.125 0.75 0
0.0625 0.8125 0
0.125 0.8125 0
0 0.8125 0
0.0625 0.8125 0
0 0.875 0
0.0625 0.875 0
0.0625 0.8125 0
0.125 0.8125 0
0.0625 0.875 0
0.125 0.875 0
0.125 0.75 0
0.1875 0.75 0
0.125 0.8125 0
0.1875 0.8125 0
0.1875 0.75 0
0.25 0.75 0
0.1875 0.8125 0
0.25 0.8125 0
0.125 0.8125 0
0.1875 0.8125 0
0.125 0.875 0
0.1875 0.875 0
0.1875 0.8125 0
0.25 0.8125 0
0.1875 0.875 0
0.25 0.875 0
0.25 0.75 0
0.3125 0.75 0
0.25 0.8125 0
0.3125 0.8125 0
0.3125 0.75 0
0.375 0.75 0
0.3125 0.8125 0
0.375 0.8125 0
0.25 0.8125 0
0.3125 0.8125 0
0.25 0.875 0
0.3125 0.875 0
0.3125 0.8125 0
0.375 0.8125 0
0.3125 0.875 0
0.375 0.875 0
0.375 0.75 0
0.4375 0.75 0
0.375 0.8125 0
0.4375 0.8125 0
0.4375 0.75 0
0.5 0.75 0
0.4375 0.8125 0
0.5 0.8125 0
0.375 0.8125 0
0.4375 0.8125 0
0.375 0.875 0
0.4375 0.875 0
0.4375 0.8125 0
0.5 0.8125 0
0.4375 0.875 0
0.5 0.875 0
0.5 0.5 0
0.5625 0.5 0
0.5 0.5625 0
0.5625 0.5625 0
0.5625 0.5 0
0.625 0.5 0
0.5625 0.5625 0
0.625 0.5625 0
0.5 0.5625 0
0.5625 0.5625 0
0.5 0.625 0
0.5625 0.625 0
0.5625 0.5625 0
0.625 0.5625 0
0.5625 0.625 0
0.625 0.625 0
0.625 0.5 0
0.6875 0.5 0
0.625 0.5625 0
0.6875 0.5625 0
0.6875 0.5 0
0.75 0.5 0
0.6875 0.5625 0
0.75 0.5625 0
0.625 0.5625 0
0.6875 0.5625 0
0.625 0.625 0
0.6875 0.625 0
0.6875 0.5625 0
0.75 0.5625 0
0.6875 0.625 0
0.75 0.625 0
0.5 0.625 0
0.5625 0.625 0
0.5 0.6875 0
0.5625 0.6875 0
0.5625 0.625 0
0.625 0.625 0
0.5625 0.6875 0
0.625 0.6875 0
0.5 0.6875 0
0.5625 0.6875 0
0.5 0.75 0
0.5625 0.75 0
0.5625 0.6875 0
0.625 0.6875 0
0.5625 0.75 0
0.625 0.75 0
0.625 0.625 0
0.6875 0.625 0
0.625 0.6875 0
0.6875 0.6875 0
0.6875 0.625 0
0.75 0.625 0
0.6875 0.6875 0
0.75 0.6875 0
0.625 0.6875 0
[...]
POINT_DATA 1744
SCALARS u_x double 1
LOOKUP_TABLE default
28.0307 1.32498 38.6146 0.209928 1.32498 0.467403 0.209928 0.318356 38.6146 0.209928 41.7938 0.129601 0.209928 0.318356 0.129601 0.20338 0.467403 0.330061 0.318356 0.248259 0.330061 0.253804 0.248259 0.202034 0.318356 0.248259 0.20338 0.211732 0.248259 0.202034 0.211732 0.191785 41.7938 0.129601 43.8615 0.0765542 0.129601 0.20338 0.0765542 0.131589 43.8615 0.0765542 45.2941 0.0500102 0.0765542 0.131589 0.0500102 0.0921412 0.20338 0.211732 0.131589 0.155822 0.211732 0.191785 0.155822 0.159175 0.131589 0.155822 0.0921412 0.118064 0.155822 0.159175 0.118064 0.130459 0.253804 0.21126 0.202034 0.171577 0.21126 0.183651 0.171577 0.150865 0.202034 0.171577 0.191785 0.17232 0.171577 0.150865 0.17232 0.156383 0.183651 0.164121 0.150865 0.135793 0.164121 0.149149 0.135793 0.124033 0.150865 0.135793 0.156383 0.143537 0.135793 0.124033 0.143537 0.132844 0.191785 0.17232 0.159175 0.153382 0.17232 0.156383 0.153382 0.145407 0.159175 0.153382 0.130459 0.134009 0.153382 0.145407 0.134009 0.132868 0.156383 0.143537 0.145407 0.137325 0.143537 0.132844 0.137325 0.129594 0.145407 0.137325 0.132868 0.129503 0.137325 0.129594 0.129503 0.125024 45.2941 0.0500102 46.3568 0.0357472 0.0500102 0.0921412 0.0357472 0.070127 46.3568 0.0357472 47.1634 0.0273886 0.0357472 0.070127 0.0273886 0.0575552 0.0921412 0.118064 0.070127 0.0943596 0.118064 0.130459 0.0943596 0.109888 0.070127 0.0943596 0.0575552 0.0799235 0.0943596 0.109888 0.0799235 0.0963789 47.1634 0.0273886 47.774 0.0221474 0.0273886 0.0575552 0.0221474 0.0505738 47.774 0.0221474 48.2218 0.0187049 0.0221474 0.0505738 0.0187049 0.0472844 0.0575552 0.0799235 0.0505738 0.0716878 0.0799235 0.0963789 0.0716878 0.0884282 0.0505738 0.0716878 0.0472844 0.0679018 0.0716878 0.0884282 0.0679018 0.0849154 0.130459 0.134009 0.109888 0.118405 0.134009 0.132868 0.118405 0.122036 0.109888 0.118405 0.0963789 0.107449 0.118405 0.122036 0.107449 0.114109 0.132868 0.129503 0.122036 0.122516 0.129503 0.125024 0.122516 0.120962 0.122036 0.122516 0.114109 0.117413 0.122516 0.120962 0.117413 0.118229 0.0963789 0.107449 0.0884282 0.10089 0.107449 0.114109 0.10089 0.109456 0.0884282 0.10089 0.0849154 0.0982867 0.10089 0.109456 0.0982867 0.108103 0.114109 0.117413 0.109456 0.114724 0.117413 0.118229 0.114724 0.117315 0.109456 0.114724 0.108103 0.114696 0.114724 0.117315 0.114696 0.118516 0.149149 0.136783 0.124033 0.11459 0.136783 0.125837 0.11459 0.10854 0.124033 0.11459 0.132844 0.123826 0.11459 0.10854 0.123826 0.118434 0.125837 0.115538 0.10854 0.118546 0.115538 0.105149 0.118546 0.200658 0.10854 0.118546 0.118434 0.130745 0.118546 0.200658 0.130745 0.225008 0.132844 0.123826 0.129594 0.122538 0.123826 0.118434 0.122538 0.118418 0.129594 0.122538 0.125024 0.120219 0.122538 0.118418 0.120219 0.117757 0.118434 0.130745 0.118418 0.132273 0.130745 0.225008 0.132273 0.228804 0.118418 0.132273 0.117757 0.132822 0.132273 0.228804 0.132822 0.230967 0.105149 0.0922528 0.200658 0.294746 0.0922528 -18.0983 0.294746 -5.7312 0.200658 0.294746 0.225008 0.339531 0.294746 -5.7312 0.339531 -6.16247 0.225008 0.339531 0.228804 0.347014 0.339531 -6.16247 0.347014 -6.21268 0.228804 0.347014 0.230967 0.349699 0.347014 -6.21268 0.349699 -6.24265 0.125024 0.120219 0.120962 0.118366 0.120219 0.117757 0.118366 0.117568 0.120962 0.118366 0.118229 0.117542 0.118366 0.117568 0.117542 0.118304 0.117757 0.132822 0.117568 0.134043 0.132822 0.230967 0.134043 0.233547 0.117568 0.134043 0.118304 0.13613 0.134043 0.233547 0.13613 0.237153 0.118229 0.117542 0.117315 0.118143 0.117542 0.118304 0.118143 0.120203 0.117315 0.118143 0.118516 0.120416 0.118143 0.120203 0.120416 0.123431 0.118304 0.13613 0.120203 0.13927 0.13613 0.237153 0.13927 0.241769 0.120203 0.13927 0.123431 0.143495 0.13927 0.241769 0.143495 0.247366 0.230967 0.349699 0.233547 0.352609 0.349699 -6.24265 0.352609 -6.27799 0.233547 0.352609 0.237153 0.356163 0.352609 -6.27799 0.356163 -6.32013 0.237153 0.356163 0.241769 0.360448 0.356163 -6.32013 0.360448 -6.36891 0.241769 0.360448 0.247366 0.365213 0.360448 -6.36891 0.365213 -6.42411 48.2218 0.0187049 48.5246 0.0163993 0.0187049 0.0472844 0.0163993 0.046762 48.5246 0.0163993 48.69 0.014895 0.0163993 0.046762 0.014895 0.0486394 0.0472844 0.0679018 0.046762 0.0676465 0.0679018 0.0849154 0.0676465 0.0851781 0.046762 0.0676465 0.0486394 0.0705527 0.0676465 0.0851781 0.0705527 0.0889508 48.69 0.014895 48.7189 0.0140555 0.014895 0.0486394 0.0140555 0.0529554 48.7189 0.0140555 48.6099 0.0139631 0.0140555 0.0529554 0.0139631 0.0601352 0.0486394 0.0705527 0.0529554 0.0766797 0.0705527 0.0889508 0.0766797 0.0963186 0.0529554 0.0766797 0.0601352 0.0864887 0.0766797 0.0963186 0.0864887 0.107674 0.0849154 0.0982867 0.0851781 0.0993169 0.0982867 0.108103 0.0993169 0.110013 0.0851781 0.0993169 0.0889508 0.103871 0.0993169 0.110013 0.103871 0.115225 0.108103 0.114696 0.110013 0.117462 0.114696 0.118516 0.117462 0.122022 0.110013 0.117462 0.115225 0.123163 0.117462 0.122022 0.123163 0.128005 0.0889508 0.103871 0.0963186 0.112074 0.103871 0.115225 0.112074 0.123913 0.0963186 0.112074 0.107674 0.124259 0.112074 0.123913 0.124259 0.136377 0.115225 0.123163 0.123913 0.132016 0.123163 0.128005 0.132016 0.136697 0.123913 0.132016 0.136377 0.144326 0.132016 0.136697 0.144326 0.148457 48.6099 0.0139631 48.4181 0.0153653 0.0139631 0.0601352 0.0153653 0.0710803 48.4181 0.0153653 49.5127 0.0242842 0.0153653 0.0710803 0.0242842 0.0839811 0.0601352 0.0864887 0.0710803 0.10062 0.0864887 0.107674 0.10062 0.123544 0.0710803 0.10062 0.0839811 0.117548 0.10062 0.123544 0.117548 0.142228 0.107674 0.124259 0.123544 0.140769 0.124259 0.136377 0.140769 0.152859 0.123544 0.140769 0.142228 0.159841 0.140769 0.152859 0.159841 0.17163 0.136377 0.144326 0.152859 0.16034 0.144326 0.148457 0.16034 0.163553 0.152859 0.16034 0.17163 0.178382 0.16034 0.163553 0.178382 0.180476 0.118516 0.120416 0.122022 0.124515 0.120416 0.123431 0.124515 0.128039 0.122022 0.124515 0.128005 0.130564 0.124515 0.128039 0.130564 0.13404 0.123431 0.143495 0.128039 0.148743 0.143495 0.247366 0.148743 0.253698 0.128039 0.148743 0.13404 0.154773 0.148743 0.253698 0.154773 0.260353 0.128005 0.130564 0.136697 0.138778 0.130564 0.13404 0.138778 0.141432 0.136697 0.138778 0.148457 0.149471 0.138778 0.141432 0.149471 0.150551 0.13404 0.154773 0.141432 0.161365 0.154773 0.260353 0.161365 0.266304 0.141432 0.161365 0.150551 0.16791 0.161365 0.266304 0.16791 0.270279 0.247366 0.365213 0.253698 0.370059 0.365213 -6.42411 0.370059 -6.48574 0.253698 0.370059 0.260353 0.374111 0.370059 -6.48574 0.374111 -6.55407 0.260353 0.374111 0.266304 0.376132 0.374111 -6.55407 0.376132 -6.62937 0.266304 0.376132 0.270279 0.373658 0.376132 -6.62937 0.373658 -6.70323 0.148457 0.149471 0.163553 0.163137 0.149471 0.150551 0.163137 0.161511 0.163553 0.163137 0.180476 0.178001 0.163137 0.161511 0.178001 0.17202 0.150551 0.16791 0.161511 0.174265 0.16791 0.270279 0.174265 0.267234 0.161511 0.174265 0.17202 0.171383 0.174265 0.267234 0.171383 0.232718 0.270279 0.373658 0.267234 0.369024 0.373658 -6.70323 0.369024 -6.63574 0.267234 0.369024 0.232718 0.4335 0.369024 -6.63574 0.4335 -4.49816 -18.0983 0.0213908 58.2835 1.85497 0.0213908 0.00545533 1.85497 0.0109652 58.2835 1.85497 -5.7312 -1.99349 1.85497 0.0109652 -1.99349 -0.235063 0.00545533 0.00280028 0.0109652 -0.00715973 0.00280028 -55.7951 -0.00715973 -56.2785 0.0109652 -0.00715973 -0.235063 -0.0239747 -0.00715973 -56.2785 -0.0239747 -56.324 -5.7312 -1.99349 57.7607 1.58148 -1.99349 -0.235063 1.58148 -0.0370072 57.7607 1.58148 -6.16247 -2.05142 1.58148 -0.0370072 -2.05142 -0.244217 -0.235063 -0.0239747 -0.0370072 -0.0138094 -0.0239747 -56.324 -0.0138094 -56.3605 -0.0370072 -0.0138094 -0.244217 -0.0255299 -0.0138094 -56.3605 -0.0255299 -56.4113 -6.16247 -2.05142 57.832 1.57777 -2.05142 -0.244217 1.57777 -0.0386334 57.832 1.57777 -6.21268 -2.06048 1.57777 -0.0386334 -2.06048 -0.245609 -0.244217 -0.0255299 -0.0386334 -0.0143596 -0.0255299 -56.4113 -0.0143596 -56.476 -0.0386334 -0.0143596 -0.245609 -0.0260484 -0.0143596 -56.476 -0.0260484 -56.5542 -6.21268 -2.06048 57.9802 1.58205 -2.06048 -0.245609 1.58205 -0.0393137 57.9802 1.58205 -6.24265 -2.06966 1.58205 -0.0393137 -2.06966 -0.247217 -0.245609 -0.0260484 -0.0393137 -0.0149304 -0.0260484 -56.5542 -0.0149304 -56.6453 -0.0393137 -0.0149304 -0.247217 -0.0267733 -0.0149304 -56.6453 -0.0267733 -56.7488 -6.24265 -2.06966 58.1716 1.58803 -2.06966 -0.247217 1.58803 -0.0401881 58.1716 1.58803 -6.27799 -2.08101 1.58803 -0.0401881 -2.08101 -0.249279 -0.247217 -0.0267733 -0.0401881 -0.0157257 -0.0267733 -56.7488 -0.0157257 -56.8638 -0.0401881 -0.0157257 -0.249279 -0.0277501 -0.0157257 -56.8638 -0.0277501 -56.9894 -6.27799 -2.08101 58.3961 1.59519 -2.08101 -0.249279 1.59519 -0.0413297 58.3961 1.59519 -6.32013 -2.09458 1.59519 -0.0413297 -2.09458 -0.251841 -0.249279 -0.0277501 -0.0413297 -0.0167834 -0.0277501 -56.9894 -0.0167834 -57.1247 -0.0413297 -0.0167834 -0.251841 -0.0290278 -0.0167834 -57.1247 -0.0290278 -57.2683 -6.32013 -2.09458 58.6424 1.60323 -2.09458 -0.251841 1.60323 -0.0428263 58.6424 1.60323 -6.36891 -2.11032 1.60323 -0.0428263 -2.11032 -0.254996 -0.251841 -0.0290278 -0.0428263 -0.0181691 -0.0290278 -57.2683 -0.0181691 -57.4188 -0.0428263 -0.0181691 -0.254996 -0.0306918 -0.0181691 -57.4188 -0.0306918 -57.5747 -6.36891 -2.11032 58.8965 1.61167 -2.11032 -0.254996 1.61167 -0.0448334 58.8965 1.61167 -6.42411 -2.12825 1.61167 -0.0448334 -2.12825 -0.258916 -0.254996 -0.0306918 -0.0448334 -0.019995 -0.0306918 -57.5747 -0.019995 -57.7339 -0.0448334 -0.019995 -0.258916 -0.032885 -0.019995 -57.7339 -0.032885 -57.8941 49.5127 -0.00111926 50.7222 -0.00945901 -0.00111926 0.0242842 -0.00945901 0.0346032 50.7222 -0.00945901 51.6291 -0.0266979 -0.00945901 0.0346032 -0.0266979 0.0204869 0.0242842 0.064938 0.0346032 0.0575226 0.064938 0.0839811 0.0575226 0.0794429 0.0346032 0.0575226 0.0204869 0.0455544 0.0575226 0.0794429 0.0455544 0.0702946 51.6291 -0.0266979 52.8471 -0.0326317 -0.0266979 0.0204869 -0.0326317 0.0347648 52.8471 -0.0326317 72.7203 0.971911 -0.0326317 0.0347648 0.971911 1.00495 0.0204869 0.0455544 0.0347648 0.0673002 0.0455544 0.0702946 0.0673002 0.0946655 0.0347648 0.0673002 1.00495 1.0255 0.0673002 0.0946655 1.0255 1.04099 0.0839811 0.102289 0.0794429 0.0986092 0.102289 0.117548 0.0986092 0.115583 0.0794429 0.0986092 0.0702946 0.0917638 0.0986092 0.115583 0.0917638 0.109995 0.117548 0.130963 0.115583 0.12973 0.130963 0.142228 0.12973 0.141974 0.115583 0.12973 0.109995 0.125345 0.12973 0.141974 0.125345 0.138246 0.0702946 0.0917638 0.0946655 0.117076 0.0917638 0.109995 0.117076 0.135664 0.0946655 0.117076 1.04099 1.0535 0.117076 0.135664 1.0535 1.06379 0.109995 0.125345 0.135664 0.151177 0.125345 0.138246 0.151177 0.164132 0.135664 0.151177 1.06379 1.07234 0.151177 0.164132 1.07234 1.07942 0.142228 0.151831 0.141974 0.151971 0.151831 0.159841 0.151971 0.160479 0.141974 0.151971 0.138246 0.148974 0.151971 0.160479 0.148974 0.157831 0.159841 0.166341 0.160479 0.167178 0.166341 0.17163 0.167178 0.17266 0.160479 0.167178 0.157831 0.164974 0.167178 0.17266 0.164974 0.170594 0.138246 0.148974 0.164132 0.174897 0.148974 0.157831 0.174897 0.183754 0.164132 0.174897 1.07942 1.08526 0.174897 0.183754 1.08526 1.09 0.157831 0.164974 0.183754 0.190911 0.164974 0.170594 0.190911 0.196525 0.183754 0.190911 1.09 1.09377 0.190911 0.196525 1.09377 1.09665 0.17163 0.175521 0.17266 0.176586 0.175521 0.178382 0.176586 0.179437 0.17266 0.176586 0.170594 0.174761 0.176586 0.179437 0.174761 0.177578 0.178382 0.179929 0.179437 0.180831 0.179929 0.180476 0.180831 0.181184 0.179437 0.180831 0.177578 0.179044 0.180831 0.181184 0.179044 0.179191 0.170594 0.174761 0.196525 0.200707 0.174761 0.177578 0.200707 0.203528 0.196525 0.200707 1.09665 1.09871 0.200707 0.203528 1.09871 1.09998 0.177578 0.179044 0.203528 0.205021 0.179044 0.179191 0.205021 0.205184 0.203528 0.205021 1.09998 1.10049 0.205021 0.205184 1.10049 1.10024 -6.42411 -2.12825 59.1394 1.61986 -2.12825 -0.258916 1.61986 -0.0476269 59.1394 1.61986 -6.48574 -2.14858 1.61986 -0.0476269 -2.14858 -0.263917 -0.258916 -0.032885 -0.0476269 -0.0224452 -0.032885 -57.8941 -0.0224452 -58.0526 -0.0476269 -0.0224452 -0.263917 -0.0358422 -0.0224452 -58.0526 -0.0358422 -58.2062 -6.48574 -2.14858 59.3457 1.62675 -2.14858 -0.263917 1.62675 -0.0516836 59.3457 1.62675 -6.55407 -2.1718 1.62675 -0.0516836 -2.1718 -0.270551 -0.263917 -0.0358422 -0.0516836 -0.0258216 -0.0358422 -58.2062 -0.0258216 -58.3507 -0.0516836 -0.0258216 -0.270551 -0.0399484 -0.0258216 -58.3507 -0.0399484 -58.4815 -6.55407 -2.1718 59.4804 1.63071 -2.1718 -0.270551 1.63071 -0.05781 59.4804 1.63071 -6.62937 -2.19894 1.63071 -0.05781 -2.19894 -0.279738 -0.270551 -0.0399484 -0.05781 -0.0306127 -0.0399484 -58.4815 -0.0306127 -58.5923 -0.05781 -0.0306127 -0.279738 -0.0458069 -0.0306127 -58.5923 -0.0458069 -58.6758 -6.62937 -2.19894 59.4938 1.62923 -2.19894 -0.279738 1.62923 -0.0672457 59.4938 1.62923 -6.70323 -2.23107 1.62923 -0.0672457 -2.23107 -0.292555 -0.279738 -0.0458069 -0.0672457 -0.0375127 -0.0458069 -58.6758 -0.0375127 -58.7228 -0.0672457 -0.0375127 -0.292555 -0.0540759 -0.0375127 -58.7228 -0.0540759 -58.7219 0.180476 0.179744 0.181184 0.180044 0.179744 0.178001 0.180044 0.177805 0.181184 0.180044 0.179191 0.177947 0.180044 0.177805 0.177947 0.17527 0.178001 0.174852 0.177805 0.173875 0.174852 0.17202 0.173875 0.168737 0.177805 0.173875 0.17527 0.171005 0.173875 0.168737 0.171005 0.165021 0.179191 0.177947 0.205184 0.203976 0.177947 0.17527 0.203976 0.201318 0.205184 0.203976 1.10024 1.09919 0.203976 0.201318 1.09919 1.09732 0.17527 0.171005 0.201318 0.197082 0.171005 0.165021 0.197082 0.19109 0.201318 0.197082 1.09732 1.09454 0.197082 0.19109 1.09454 1.09076 0.17202 0.165437 0.168737 0.161438 0.165437 0.171383 0.161438 0.153323 0.168737 0.161438 0.165021 0.157033 0.161438 0.153323 0.157033 0.146798 0.171383 0.154764 0.153323 0.141342 0.154764 0.232718 0.141342 0.132356 0.153323 0.141342 0.146798 0.13376 0.141342 0.132356 0.13376 0.117641 0.165021 0.157033 0.19109 0.183095 0.157033 0.146798 0.183095 0.172789 0.19109 0.183095 1.09076 1.08584 0.183095 0.172789 1.08584 1.07961 0.146798 0.13376 0.172789 0.159774 0.13376 0.117641 0.159774 0.143642 0.172789 0.159774 1.07961 1.07189 0.159774 0.143642 1.07189 1.06251 -6.70323 -2.23107 59.3191 1.62113 -2.23107 -0.292555 1.62113 -0.0804375 59.3191 1.62113 -6.63574 -2.24817 1.62113 -0.0804375 -2.24817 -0.303708 -0.292555 -0.0540759 -0.0804375 -0.0466475 -0.0540759 -58.7219 -0.0466475 -58.6596 -0.0804375 -0.0466475 -0.303708 -0.0629281 -0.0466475 -58.6596 -0.0629281 -58.5205 -6.63574 -2.24817 59.0375 1.73766 -2.24817 -0.303708 1.73766 -0.0667854 59.0375 1.73766 -4.49816 -1.23736 1.73766 -0.0667854 -1.23736 -0.173262 -0.303708 -0.0629281 -0.0667854 -0.0507002 -0.0629281 -58.5205 -0.0507002 -58.2889 -0.0667854 -0.0507002 -0.173262 -0.0535578 -0.0507002 -58.2889 -0.0535578 -57.9471 0.232718 0.148953 0.132356 0.109223 0.148953 0.4335 0.109223 0.09674 0.132356 0.109223 0.117641 0.0966704 0.109223 0.09674 0.0966704 0.0710976 0.4335 -0.2338 0.09674 -0.0086393 -0.2338 -4.49816 -0.0086393 -0.356373 0.09674 -0.0086393 0.0710976 0.0338707 -0.0086393 -0.356373 0.0338707 -0.0180154 0.117641 0.0966704 0.143642 0.124027 0.0966704 0.0710976 0.124027 0.101132 0.143642 0.124027 1.06251 1.05148 0.124027 0.101132 1.05148 1.03911 0.0710976 0.0338707 0.101132 0.0756434 0.0338707 -0.0180154 0.0756434 0.0494971 0.101132 0.0756434 1.03911 1.02616 0.0756434 0.0494971 1.02616 1.01353 -4.49816 -1.23736 -0.356373 -0.174998 -1.23736 -0.173262 -0.174998 -0.0491174 -0.356373 -0.174998 -0.0180154 -0.0266761 -0.174998 -0.0491174 -0.0266761 -0.0247704 -0.173262 -0.0535578 -0.0491174 -0.0448435 -0.0535578 -57.9471 -0.0448435 -57.4664 -0.0491174 -0.0448435 -0.0247704 -0.0524974 -0.0448435 -57.4664 -0.0524974 -56.7556 -0.0180154 -0.0266761 0.0494971 0.0279586 -0.0266761 -0.0247704 0.0279586 0.00969986 0.0494971 0.0279586 1.01353 1.00172 0.0279586 0.00969986 1.00172 0.989816 -0.0247704 -0.0524974 0.00969986 -0.0439439 -0.0524974 -56.7556 -0.0439439 -55.7272 0.00969986 -0.0439439 0.989816 0.970235 -0.0439439 -55.7272 0.970235 -44.2122 
SCALARS u_y double 1
LOOKUP_TABLE default