# vtk DataFile Version 3.0
#This file was generated by the deal.II library on 2026/1/5 at 14:19:34
ASCII
DATASET UNSTRUCTURED_GRID

POINTS 4096 double
0 0 0
0.03125 0 0
0 0.03125 0
0.03125 0.03125 0
0.03125 0 0
0.0625 0 0
0.03125 0.03125 0
0.0625 0.03125 0
0 0.03125 0
0.03125 0.03125 0
0 0.0625 0
0.03125 0.0625 0
0.03125 0.03125 0
0.0625 0.03125 0
0.03125 0.0625 0
0.0625 0.0625 0
0.0625 0 0
0.09375 0 0
0.0625 0.03125 0
0.09375 0.03125 0
0.09375 0 0
0.125 0 0
0.09375 0.03125 0
0.125 0.03125 0
0.0625 0.03125 0
0.09375 0.03125 0
0.0625 0.0625 0
0.09375 0.0625 0
0.09375 0.03125 0
0.125 0.03125 0
0.09375 0.0625 0
0.125 0.0625 0
0 0.0625 0
0.03125 0.0625 0
0 0.09375 0
0.03125 0.09375 0
0.03125 0.0625 0
0.0625 0.0625 0
0.03125 0.09375 0
0.0625 0.09375 0
0 0.09375 0
0.03125 0.09375 0
0 0.125 0
0.03125 0.125 0
0.03125 0.09375 0
0.0625 0.09375 0
0.03125 0.125 0
0.0625 0.125 0
0.0625 0.0625 0
0.09375 0.0625 0
0.0625 0.09375 0
0.09375 0.09375 0
0.09375 0.0625 0
0.125 0.0625 0
0.09375 0.09375 0
0.125 0.09375 0
0.0625 0.09375 0
0.09375 0.09375 0
0.0625 0.125 0
0.09375 0.125 0
0.09375 0.09375 0
0.125 0.09375 0
0.09375 0.125 0
0.125 0.125 0
0.125 0 0
0.15625 0 0
0.125 0.03125 0
0.15625 0.03125 0
0.15625 0 0
0.1875 0 0
0.15625 0.03125 0
0.1875 0.03125 0
0.125 0.03125 0
0.15625 0.03125 0
0.125 0.0625 0
0.15625 0.0625 0
0.15625 0.03125 0
0.1875 0.03125 0
0.15625 0.0625 0
0.1875 0.0625 0
0.1875 0 0
0.21875 0 0
0.1875 0.03125 0
0.21875 0.03125 0
0.21875 0 0
0.25 0 0
0.21875 0.03125 0
0.25 0.03125 0
0.1875 0.03125 0
0.21875 0.03125 0
0.1875 0.0625 0
0.21875 0.0625 0
0.21875 0.03125 0
0.25 0.03125 0
0.21875 0.0625 0
0.25 0.0625 0
0.125 0.0625 0
0.15625 0.0625 0
0.125 0.09375 0
0.15625 0.09375 0
0.15625 0.0625 0
0.1875 0.0625 0
0.15625 0.09375 0
0.1875 0.09375 0
0.125 0.09375 0
0.15625 0.09375 0
0.125 0.125 0
0.15625 0.125 0
0.15625 0.09375 0
0.1875 0.09375 0
0.15625 0.125 0
0.1875 0.125 0
0.1875 0.0625 0
0.21875 0.0625 0
0.1875 0.09375 0
0.21875 0.09375 0
0.21875 0.0625 0
0.25 0.0625 0
0.21875 0.09375 0
0.25 0.09375 0
0.1875 0.09375 0
0.21875 0.09375 0
0.1875 0.125 0
0.21875 0.125 0
0.21875 0.09375 0
0.25 0.09375 0
0.21875 0.125 0
0.25 0.125 0
0 0.125 0
0.03125 0.125 0
0 0.15625 0
0.03125 0.15625 0
0.03125 0.125 0
0.0625 0.125 0
0.03125 0.15625 0
0.0625 0.15625 0
0 0.15625 0
0.03125 0.15625 0
0 0.1875 0
0.03125 0.1875 0
0.03125 0.15625 0
0.0625 0.15625 0
0.03125 0.1875 0
0.0625 0.1875 0
0.0625 0.125 0
0.09375 0.125 0
0.0625 0.15625 0
0.09375 0.15625 0
0.09375 0.125 0
0.125 0.125 0
0.09375 0.15625 0
0.125 0.15625 0
0.0625 0.15625 0
0.09375 0.15625 0
0.0625 0.1875 0
0.09375 0.1875 0
0.09375 0.15625 0
0.125 0.15625 0
0.09375 0.1875 0
0.125 0.1875 0
0 0.1875 0
0.03125 0.1875 0
0 0.21875 0
0.03125 0.21875 0
0.03125 0.1875 0
0.0625 0.1875 0
0.03125 0.21875 0
0.0625 0.21875 0
0 0.21875 0
0.03125 0.21875 0
0 0.25 0
0.03125 0.25 0
0.03125 0.21875 0
0.0625 0.21875 0
0.03125 0.25 0
0.0625 0.25 0
0.0625 0.1875 0
0.09375 0.1875 0
0.0625 0.21875 0
0.09375 0.21875 0
0.09375 0.1875 0
0.125 0.1875 0
0.09375 0.21875 0
0.125 0.21875 0
0.0625 0.21875 0
0.09375 0.21875 0
0.0625 0.25 0
0.09375 0.25 0
0.09375 0.21875 0
0.125 0.21875 0
0.09375 0.25 0
0.125 0.25 0
0.125 0.125 0
0.15625 0.125 0
0.125 0.15625 0
0.15625 0.15625 0
0.15625 0.125 0
0.1875 0.125 0
0.15625 0.15625 0
0.1875 0.15625 0
0.125 0.15625 0
0.15625 0.15625 0
0.125 0.1875 0
0.15625 0.1875 0
0.15625 0.15625 0
0.1875 0.15625 0
0.15625 0.1875 0
0.1875 0.1875 0
0.1875 0.125 0
0.21875 0.125 0
0.1875 0.15625 0
0.21875 0.15625 0
0.21875 0.125 0
0.25 0.125 0
0.21875 0.15625 0
0.25 0.15625 0
0.1875 0.15625 0
0.21875 0.15625 0
0.1875 0.1875 0
0.21875 0.1875 0
0.21875 0.15625 0
0.25 0.15625 0
0.21875 0.1875 0
0.25 0.1875 0
0.125 0.1875 0
0.15625 0.1875 0
0.125 0.21875 0
0.15625 0.21875 0
0.15625 0.1875 0
0.1875 0.1875 0
0.15625 0.21875 0
0.1875 0.21875 0
0.125 0.21875 0
0.15625 0.21875 0
0.125 0.25 0
0.15625 0.25 0
0.15625 0.21875 0
0.1875 0.21875 0
0.15625 0.25 0
0.1875 0.25 0
0.1875 0.1875 0
0.21875 0.1875 0
0.1875 0.21875 0
0.21875 0.21875 0
0.21875 0.1875 0
0.25 0.1875 0
0.21875 0.21875 0
0.25 0.21875 0
0.1875 0.21875 0
0.21875 0.21875 0
0.1875 0.25 0
0.21875 0.25 0
0.21875 0.21875 0
0.25 0.21875 0
0.21875 0.25 0
0.25 0.25 0
0.25 0 0
0.28125 0 0
0.25 0.03125 0
0.28125 0.03125 0
0.28125 0 0
0.3125 0 0
0.28125 0.03125 0
0.3125 0.03125 0
0.25 0.03125 0
0.28125 0.03125 0
0.25 0.0625 0
0.28125 0.0625 0
0.28125 0.03125 0
0.3125 0.03125 0
0.28125 0.0625 0
0.3125 0.0625 0
0.3125 0 0
0.34375 0 0
0.3125 0.03125 0
0.34375 0.03125 0
0.34375 0 0
0.375 0 0
0.34375 0.03125 0
0.375 0.03125 0
0.3125 0.03125 0
0.34375 0.03125 0
0.3125 0.0625 0
0.34375 0.0625 0
0.34375 0.03125 0
0.375 0.03125 0
0.34375 0.0625 0
0.375 0.0625 0
0.25 0.0625 0
0.28125 0.0625 0
0.25 0.09375 0
0.28125 0.09375 0
0.28125 0.0625 0
0.3125 0.0625 0
0.28125 0.09375 0
0.3125 0.09375 0
0.25 0.09375 0
0.28125 0.09375 0
0.25 0.125 0
0.28125 0.125 0
0.28125 0.09375 0
0.3125 0.09375 0
0.28125 0.125 0
0.3125 0.125 0
0.3125 0.0625 0
0.34375 0.0625 0
0.3125 0.09375 0
0.34375 0.09375 0
0.34375 0.0625 0
0.375 0.0625 0
0.34375 0.09375 0
0.375 0.09375 0
0.3125 0.09375 0
0.34375 0.09375 0
0.3125 0.125 0
0.34375 0.125 0
0.34375 0.09375 0
0.375 0.09375 0
0.34375 0.125 0
0.375 0.125 0
0.375 0 0
0.40625 0 0
0.375 0.03125 0
0.40625 0.03125 0
0.40625 0 0
0.4375 0 0
0.40625 0.03125 0
0.4375 0.03125 0
0.375 0.03125 0
0.40625 0.03125 0
0.375 0.0625 0
0.40625 0.0625 0
0.40625 0.03125 0
0.4375 0.03125 0
0.40625 0.0625 0
0.4375 0.0625 0
0.4375 0 0
0.46875 0 0
0.4375 0.03125 0
0.46875 0.03125 0
0.46875 0 0
0.5 0 0
0.46875 0.03125 0
0.5 0.03125 0
0.4375 0.03125 0
0.46875 0.03125 0
0.4375 0.0625 0
0.46875 0.0625 0
0.46875 0.03125 0
0.5 0.03125 0
0.46875 0.0625 0
0.5 0.0625 0
0.375 0.0625 0
0.40625 0.0625 0
0.375 0.09375 0
0.40625 0.09375 0
0.40625 0.0625 0
0.4375 0.0625 0
0.40625 0.09375 0
0.4375 0.09375 0
0.375 0.09375 0
0.40625 0.09375 0
0.375 0.125 0
0.40625 0.125 0
0.40625 0.09375 0
0.4375 0.09375 0
0.40625 0.125 0
0.4375 0.125 0
0.4375 0.0625 0
0.46875 0.0625 0
0.4375 0.09375 0
0.46875 0.09375 0
0.46875 0.0625 0
0.5 0.0625 0
0.46875 0.09375 0
0.5 0.09375 0
0.4375 0.09375 0
0.46875 0.09375 0
0.4375 0.125 0
0.46875 0.125 0
0.46875 0.09375 0
0.5 0.09375 0
0.46875 0.125 0
0.5 0.125 0
0.25 0.125 0
0.28125 0.125 0
0.25 0.15625 0
0.28125 0.15625 0
0.28125 0.125 0
0.3125 0.125 0
0.28125 0.15625 0
0.3125 0.15625 0
0.25 0.15625 0
0.28125 0.15625 0
0.25 0.1875 0
0.28125 0.1875 0
0.28125 0.15625 0
0.3125 0.15625 0
0.28125 0.1875 0
0.3125 0.1875 0
0.3125 0.125 0
0.34375 0.125 0
0.3125 0.15625 0
0.34375 0.15625 0
0.34375 0.125 0
0.375 0.125 0
0.34375 0.15625 0
0.375 0.15625 0
0.3125 0.15625 0
0.34375 0.15625 0
0.3125 0.1875 0
0.34375 0.1875 0
0.34375 0.15625 0
0.375 0.15625 0
0.34375 0.1875 0
0.375 0.1875 0
0.25 0.1875 0
0.28125 0.1875 0
0.25 0.21875 0
0.28125 0.21875 0
0.28125 0.1875 0
0.3125 0.1875 0
0.28125 0.21875 0
0.3125 0.21875 0
0.25 0.21875 0
0.28125 0.21875 0
0.25 0.25 0
0.28125 0.25 0
0.28125 0.21875 0
0.3125 0.21875 0
0.28125 0.25 0
0.3125 0.25 0
0.3125 0.1875 0
0.34375 0.1875 0
0.3125 0.21875 0
0.34375 0.21875 0
0.34375 0.1875 0
0.375 0.1875 0
0.34375 0.21875 0
0.375 0.21875 0
0.3125 0.21875 0
0.34375 0.21875 0
0.3125 0.25 0
0.34375 0.25 0
0.34375 0.21875 0
0.375 0.21875 0
0.34375 0.25 0
0.375 0.25 0
0.375 0.125 0
0.40625 0.125 0
0.375 0.15625 0
0.40625 0.15625 0
0.40625 0.125 0
0.4375 0.125 0
0.40625 0.15625 0
0.4375 0.15625 0
0.375 0.15625 0
0.40625 0.15625 0
0.375 0.1875 0
0.40625 0.1875 0
0.40625 0.15625 0
0.4375 0.15625 0
0.40625 0.1875 0
0.4375 0.1875 0
0.4375 0.125 0
0.46875 0.125 0
0.4375 0.15625 0
0.46875 0.15625 0
0.46875 0.125 0
0.5 0.125 0
0.46875 0.15625 0
0.5 0.15625 0
0.4375 0.15625 0
0.46875 0.15625 0
0.4375 0.1875 0
0.46875 0.1875 0
0.46875 0.15625 0
0.5 0.15625 0
0.46875 0.1875 0
0.5 0.1875 0
0.375 0.1875 0
0.40625 0.1875 0
0.375 0.21875 0
0.40625 0.21875 0
0.40625 0.1875 0
0.4375 0.1875 0
0.40625 0.21875 0
0.4375 0.21875 0
0.375 0.21875 0
0.40625 0.21875 0
0.375 0.25 0
0.40625 0.25 0
0.40625 0.21875 0
0.4375 0.21875 0
0.40625 0.25 0
0.4375 0.25 0
0.4375 0.1875 0
0.46875 0.1875 0
0.4375 0.21875 0
0.46875 0.21875 0
0.46875 0.1875 0
0.5 0.1875 0
0.46875 0.21875 0
0.5 0.21875 0
0.4375 0.21875 0
0.46875 0.21875 0
0.4375 0.25 0
0.46875 0.25 0
0.46875 0.21875 0
0.5 0.21875 0
0.46875 0.25 0
0.5 0.25 0
0 0.25 0
0.03125 0.25 0
0 0.28125 0
0.03125 0.28125 0
0.03125 0.25 0
0.0625 0.25 0
0.03125 0.28125 0
0.0625 0.28125 0
0 0.28125 0
0.03125 0.28125 0
0 0.3125 0
0.03125 0.3125 0
0.03125 0.28125 0
0.0625 0.28125 0
0.03125 0.3125 0
0.0625 0.3125 0
0.0625 0.25 0
0.09375 0.25 0
0.0625 0.28125 0
0.09375 0.28125 0
0.09375 0.25 0
0.125 0.25 0
0.09375 0.28125 0
0.125 0.28125 0
0.0625 0.28125 0
0.09375 0.28125 0
0.0625 0.3125 0
0.09375 0.3125 0
0.09375 0.28125 0
0.125 0.28125 0
0.09375 0.3125 0
0.125 0.3125 0
0 0.3125 0
0.03125 0.3125 0
0 0.34375 0
0.03125 0.34375 0
0.03125 0.3125 0
0.0625 0.3125 0
0.03125 0.34375 0
0.0625 0.34375 0
0 0.34375 0
0.03125 0.34375 0
0 0.375 0
0.03125 0.375 0
0.03125 0.34375 0
0.0625 0.34375 0
0.03125 0.375 0
0.0625 0.375 0
0.0625 0.3125 0
0.09375 0.3125 0
0.0625 0.34375 0
0.09375 0.34375 0
0.09375 0.3125 0
0.125 0.3125 0
0.09375 0.34375 0
0.125 0.34375 0
0.0625 0.34375 0
0.09375 0.34375 0
0.0625 0.375 0
0.09375 0.375 0
0.09375 0.34375 0
0.125 0.34375 0
0.09375 0.375 0
0.125 0.375 0
0.125 0.25 0
0.15625 0.25 0
0.125 0.28125 0
0.15625 0.28125 0
0.15625 0.25 0
0.1875 0.25 0
0.15625 0.28125 0
0.1875 0.28125 0
0.125 0.28125 0
0.15625 0.28125 0
0.125 0.3125 0
0.15625 0.3125 0
0.15625 0.28125 0
0.1875 0.28125 0
0.15625 0.3125 0
0.1875 0.3125 0
0.1875 0.25 0
0.21875 0.25 0
0.1875 0.28125 0
0.21875 0.28125 0
0.21875 0.25 0
0.25 0.25 0
0.21875 0.28125 0
0.25 0.28125 0
0.1875 0.28125 0
0.21875 0.28125 0
0.1875 0.3125 0
0.21875 0.3125 0
0.21875 0.28125 0
0.25 0.28125 0
0.21875 0.3125 0
0.25 0.3125 0
0.125 0.3125 0
0.15625 0.3125 0
0.125 0.34375 0
0.15625 0.34375 0
0.15625 0.3125 0
0.1875 0.3125 0
0.15625 0.34375 0
0.1875 0.34375 0
0.125 0.34375 0
[...]
POINT_DATA 4096
SCALARS u_x double 1
LOOKUP_TABLE default
2.03642e-05 1.55406e-05 -2.46562e-05 -6.69895e-05 1.55406e-05 2.19862e-05 -6.69895e-05 -0.000426648 -2.46562e-05 -6.69895e-05 -0.000145355 -0.000238936 -6.69895e-05 -0.000426648 -0.000238936 -0.00102379 2.19862e-05 1.7446e-05 -0.000426648 -0.00107155 1.7446e-05 6.97123e-06 -0.00107155 -0.00194637 -0.000426648 -0.00107155 -0.00102379 -0.00223341 -0.00107155 -0.00194637 -0.00223341 -0.0037939 -0.000145355 -0.000238936 -0.000267971 -0.00039336 -0.000238936 -0.00102379 -0.00039336 -0.00156778 -0.000267971 -0.00039336 -0.000345949 -0.000513414 -0.00039336 -0.00156778 -0.000513414 -0.0020014 -0.00102379 -0.00223341 -0.00156778 -0.00326221 -0.00223341 -0.0037939 -0.00326221 -0.00537658 -0.00156778 -0.00326221 -0.0020014 -0.0040958 -0.00326221 -0.00537658 -0.0040958 -0.00665951 6.97123e-06 -5.72992e-06 -0.00194637 -0.00296268 -5.72992e-06 -1.87995e-05 -0.00296268 -0.00404523 -0.00194637 -0.00296268 -0.0037939 -0.00557437 -0.00296268 -0.00404523 -0.00557437 -0.00746123 -1.87995e-05 -3.14133e-05 -0.00404523 -0.00513598 -3.14133e-05 -4.32265e-05 -0.00513598 -0.00619319 -0.00404523 -0.00513598 -0.00746123 -0.00936122 -0.00513598 -0.00619319 -0.00936122 -0.011204 -0.0037939 -0.00557437 -0.00537658 -0.00774801 -0.00557437 -0.00746123 -0.00774801 -0.0102417 -0.00537658 -0.00774801 -0.00665951 -0.00949919 -0.00774801 -0.0102417 -0.00949919 -0.0124633 -0.00746123 -0.00936122 -0.0102417 -0.0127444 -0.00936122 -0.011204 -0.0127444 -0.0151685 -0.0102417 -0.0127444 -0.0124633 -0.015426 -0.0127444 -0.0151685 -0.015426 -0.0182889 -0.000345949 -0.000513414 -0.000357132 -0.000608335 -0.000513414 -0.0020014 -0.000608335 -0.00233446 -0.000357132 -0.000608335 -0.000291642 -0.000691389 -0.000608335 -0.00233446 -0.000691389 -0.00259766 -0.0020014 -0.0040958 -0.00233446 -0.00475487 -0.0040958 -0.00665951 -0.00475487 -0.0076869 -0.00233446 -0.00475487 -0.00259766 -0.00529224 -0.00475487 -0.0076869 -0.00529224 -0.00853732 -0.000291642 -0.000691389 -0.000144694 -0.000774176 -0.000691389 -0.00259766 -0.000774176 -0.00282323 -0.000144694 -0.000774176 8.68366e-05 -0.000865788 -0.000774176 -0.00282323 -0.000865788 -0.00303851 -0.00259766 -0.00529224 -0.00282323 -0.00576551 -0.00529224 -0.00853732 -0.00576551 -0.0092949 -0.00282323 -0.00576551 -0.00303851 -0.00622541 -0.00576551 -0.0092949 -0.00622541 -0.0100346 -0.00665951 -0.00949919 -0.0076869 -0.0109094 -0.00949919 -0.0124633 -0.0109094 -0.014254 -0.0076869 -0.0109094 -0.00853732 -0.0120887 -0.0109094 -0.014254 -0.0120887 -0.0157604 -0.0124633 -0.015426 -0.014254 -0.0175844 -0.015426 -0.0182889 -0.0175844 -0.0207951 -0.014254 -0.0175844 -0.0157604 -0.0194059 -0.0175844 -0.0207951 -0.0194059 -0.0229132 -0.00853732 -0.0120887 -0.0092949 -0.0131495 -0.0120887 -0.0157604 -0.0131495 -0.0171248 -0.0092949 -0.0131495 -0.0100346 -0.014191 -0.0131495 -0.0171248 -0.014191 -0.0184705 -0.0157604 -0.0194059 -0.0171248 -0.0210636 -0.0194059 -0.0229132 -0.0210636 -0.0248476 -0.0171248 -0.0210636 -0.0184705 -0.0227047 -0.0210636 -0.0248476 -0.0227047 -0.0267686 -4.32265e-05 -5.41211e-05 -0.00619319 -0.00718747 -5.41211e-05 -6.40587e-05 -0.00718747 -0.00809783 -0.00619319 -0.00718747 -0.011204 -0.0129378 -0.00718747 -0.00809783 -0.0129378 -0.0145248 -6.40587e-05 -7.30051e-05 -0.00809783 -0.00890852 -7.30051e-05 -8.09017e-05 -0.00890852 -0.00960688 -0.00809783 -0.00890852 -0.0145248 -0.0159363 -0.00890852 -0.00960688 -0.0159363 -0.0171494 -0.011204 -0.0129378 -0.0151685 -0.0174477 -0.0129378 -0.0145248 -0.0174477 -0.0195322 -0.0151685 -0.0174477 -0.0182889 -0.0209771 -0.0174477 -0.0195322 -0.0209771 -0.0234333 -0.0145248 -0.0159363 -0.0195322 -0.0213839 -0.0159363 -0.0171494 -0.0213839 -0.0229724 -0.0195322 -0.0213839 -0.0234333 -0.0256132 -0.0213839 -0.0229724 -0.0256132 -0.0274811 -8.09017e-05 -8.76615e-05 -0.00960688 -0.0101821 -8.76615e-05 -9.31718e-05 -0.0101821 -0.0106247 -0.00960688 -0.0101821 -0.0171494 -0.0181448 -0.0101821 -0.0106247 -0.0181448 -0.0189061 -9.31718e-05 -9.73017e-05 -0.0106247 -0.0109261 -9.73017e-05 -9.99148e-05 -0.0109261 -0.0110792 -0.0106247 -0.0109261 -0.0189061 -0.0194191 -0.0109261 -0.0110792 -0.0194191 -0.0196718 -0.0171494 -0.0181448 -0.0229724 -0.0242723 -0.0181448 -0.0189061 -0.0242723 -0.0252623 -0.0229724 -0.0242723 -0.0274811 -0.0290076 -0.0242723 -0.0252623 -0.0290076 -0.0301679 -0.0189061 -0.0194191 -0.0252623 -0.0259243 -0.0194191 -0.0196718 -0.0259243 -0.0262433 -0.0252623 -0.0259243 -0.0301679 -0.030941 -0.0259243 -0.0262433 -0.030941 -0.0313098 -0.0182889 -0.0209771 -0.0207951 -0.0238054 -0.0209771 -0.0234333 -0.0238054 -0.0265536 -0.0207951 -0.0238054 -0.0229132 -0.0261978 -0.0238054 -0.0265536 -0.0261978 -0.0291949 -0.0234333 -0.0256132 -0.0265536 -0.0289914 -0.0256132 -0.0274811 -0.0289914 -0.03108 -0.0265536 -0.0289914 -0.0291949 -0.0318539 -0.0289914 -0.03108 -0.0318539 -0.0341338 -0.0229132 -0.0261978 -0.0248476 -0.0283886 -0.0261978 -0.0291949 -0.0283886 -0.0316196 -0.0248476 -0.0283886 -0.0267686 -0.03057 -0.0283886 -0.0316196 -0.03057 -0.0340402 -0.0291949 -0.0318539 -0.0316196 -0.0344884 -0.0318539 -0.0341338 -0.0344884 -0.0369529 -0.0316196 -0.0344884 -0.0340402 -0.0371259 -0.0344884 -0.0369529 -0.0371259 -0.0397841 -0.0274811 -0.0290076 -0.03108 -0.032787 -0.0290076 -0.0301679 -0.032787 -0.0340853 -0.03108 -0.032787 -0.0341338 -0.0360006 -0.032787 -0.0340853 -0.0360006 -0.037425 -0.0301679 -0.030941 -0.0340853 -0.0349516 -0.030941 -0.0313098 -0.0349516 -0.0353671 -0.0340853 -0.0349516 -0.037425 -0.0383819 -0.0349516 -0.0353671 -0.0383819 -0.0388505 -0.0341338 -0.0360006 -0.0369529 -0.0389775 -0.0360006 -0.037425 -0.0389775 -0.0405315 -0.0369529 -0.0389775 -0.0397841 -0.0419783 -0.0389775 -0.0405315 -0.0419783 -0.0436764 -0.037425 -0.0383819 -0.0405315 -0.0415878 -0.0383819 -0.0388505 -0.0415878 -0.0421232 -0.0405315 -0.0415878 -0.0436764 -0.0448493 -0.0415878 -0.0421232 -0.0448493 -0.045471 8.68366e-05 -0.000865788 0.000406269 -0.000973054 -0.000865788 -0.00303851 -0.000973054 -0.00326459 0.000406269 -0.000973054 0.000818001 -0.00110114 -0.000973054 -0.00326459 -0.00110114 -0.00351708 -0.00303851 -0.00622541 -0.00326459 -0.00671228 -0.00622541 -0.0100346 -0.00671228 -0.0108169 -0.00326459 -0.00671228 -0.00351708 -0.00725676 -0.00671228 -0.0108169 -0.00725676 -0.0116885 0.000818001 -0.00110114 0.00132799 -0.00125422 -0.00110114 -0.00351708 -0.00125422 -0.00380771 0.00132799 -0.00125422 0.00194401 -0.00143614 -0.00125422 -0.00380771 -0.00143614 -0.00414628 -0.00351708 -0.00725676 -0.00380771 -0.0078825 -0.00725676 -0.0116885 -0.0078825 -0.0126853 -0.00380771 -0.0078825 -0.00414628 -0.00860936 -0.0078825 -0.0126853 -0.00860936 -0.0138378 -0.0100346 -0.014191 -0.0108169 -0.0152936 -0.014191 -0.0184705 -0.0152936 -0.0198968 -0.0108169 -0.0152936 -0.0116885 -0.0165193 -0.0152936 -0.0198968 -0.0165193 -0.0214799 -0.0184705 -0.0227047 -0.0198968 -0.0244463 -0.0227047 -0.0267686 -0.0244463 -0.0288096 -0.0198968 -0.0244463 -0.0214799 -0.0263773 -0.0244463 -0.0288096 -0.0263773 -0.0310709 -0.0116885 -0.0165193 -0.0126853 -0.0179162 -0.0165193 -0.0214799 -0.0179162 -0.0232786 -0.0126853 -0.0179162 -0.0138378 -0.0195241 -0.0179162 -0.0232786 -0.0195241 -0.0253405 -0.0214799 -0.0263773 -0.0232786 -0.0285653 -0.0263773 -0.0310709 -0.0285653 -0.0336274 -0.0232786 -0.0285653 -0.0253405 -0.0310641 -0.0285653 -0.0336274 -0.0310641 -0.036537 0.00194401 -0.00143614 0.00267583 -0.00165098 -0.00143614 -0.00414628 -0.00165098 -0.00454235 0.00267583 -0.00165098 0.00353526 -0.00190362 -0.00165098 -0.00454235 -0.00190362 -0.00500693 -0.00414628 -0.00860936 -0.00454235 -0.00945666 -0.00860936 -0.0138378 -0.00945666 -0.0151749 -0.00454235 -0.00945666 -0.00500693 -0.0104462 -0.00945666 -0.0151749 -0.0104462 -0.0167283 0.00353526 -0.00190362 0.00453654 -0.00220024 -0.00190362 -0.00500693 -0.00220024 -0.00555413 0.00453654 -0.00220024 0.0056968 -0.00254907 -0.00220024 -0.00555413 -0.00254907 -0.00620305 -0.00500693 -0.0104462 -0.00555413 -0.0116052 -0.0104462 -0.0167283 -0.0116052 -0.0185372 -0.00555413 -0.0116052 -0.00620305 -0.0129698 -0.0116052 -0.0185372 -0.0129698 -0.0206516 -0.0138378 -0.0195241 -0.0151749 -0.0213805 -0.0195241 -0.0253405 -0.0213805 -0.0277094 -0.0151749 -0.0213805 -0.0167283 -0.0235253 -0.0213805 -0.0277094 -0.0235253 -0.0304305 -0.0253405 -0.0310641 -0.0277094 -0.0339213 -0.0310641 -0.036537 -0.0339213 -0.0398491 -0.0277094 -0.0339213 -0.0304305 -0.0371844 -0.0339213 -0.0398491 -0.0371844 -0.0436105 -0.0167283 -0.0235253 -0.0185372 -0.0260062 -0.0235253 -0.0304305 -0.0260062 -0.0335561 -0.0185372 -0.0260062 -0.0206516 -0.028883 -0.0260062 -0.0335561 -0.028883 -0.0371497 -0.0304305 -0.0371844 -0.0335561 -0.040906 -0.0371844 -0.0436105 -0.040906 -0.0478711 -0.0335561 -0.040906 -0.0371497 -0.045148 -0.040906 -0.0478711 -0.045148 -0.052686 -0.0267686 -0.03057 -0.0288096 -0.0328907 -0.03057 -0.0340402 -0.0328907 -0.0366191 -0.0288096 -0.0328907 -0.0310709 -0.0354609 -0.0328907 -0.0366191 -0.0354609 -0.0394753 -0.0340402 -0.0371259 -0.0366191 -0.039941 -0.0371259 -0.0397841 -0.039941 -0.0428129 -0.0366191 -0.039941 -0.0394753 -0.0430602 -0.039941 -0.0428129 -0.0430602 -0.0461724 -0.0310709 -0.0354609 -0.0336274 -0.0383612 -0.0354609 -0.0394753 -0.0383612 -0.0426941 -0.0336274 -0.0383612 -0.036537 -0.0416524 -0.0383612 -0.0426941 -0.0416524 -0.0463377 -0.0394753 -0.0430602 -0.0426941 -0.0465728 -0.0430602 -0.0461724 -0.0465728 -0.0499553 -0.0426941 -0.0465728 -0.0463377 -0.0505417 -0.0465728 -0.0499553 -0.0505417 -0.0542254 -0.0397841 -0.0419783 -0.0428129 -0.0451978 -0.0419783 -0.0436764 -0.0451978 -0.0470623 -0.0428129 -0.0451978 -0.0461724 -0.0487749 -0.0451978 -0.0470623 -0.0487749 -0.0508335 -0.0436764 -0.0448493 -0.0470623 -0.0483754 -0.0448493 -0.045471 -0.0483754 -0.0491077 -0.0470623 -0.0483754 -0.0508335 -0.0523154 -0.0483754 -0.0491077 -0.0523154 -0.0531875 -0.0461724 -0.0487749 -0.0499553 -0.0528057 -0.0487749 -0.0508335 -0.0528057 -0.0550898 -0.0499553 -0.0528057 -0.0542254 -0.0573551 -0.0528057 -0.0550898 -0.0573551 -0.0598982 -0.0508335 -0.0523154 -0.0550898 -0.0567732 -0.0523154 -0.0531875 -0.0567732 -0.0578195 -0.0550898 -0.0567732 -0.0598982 -0.0618196 -0.0567732 -0.0578195 -0.0618196 -0.0630801 -0.036537 -0.0416524 -0.0398491 -0.0453836 -0.0416524 -0.0463377 -0.0453836 -0.0504539 -0.0398491 -0.0453836 -0.0436105 -0.049599 -0.0453836 -0.0504539 -0.049599 -0.055083 -0.0463377 -0.0505417 -0.0504539 -0.0550131 -0.0505417 -0.0542254 -0.0550131 -0.0590269 -0.0504539 -0.0550131 -0.055083 -0.0600224 -0.0550131 -0.0590269 -0.0600224 -0.0643909 -0.0436105 -0.049599 -0.0478711 -0.0543426 -0.049599 -0.055083 -0.0543426 -0.0602613 -0.0478711 -0.0543426 -0.052686 -0.0596599 -0.0543426 -0.0602613 -0.0596599 -0.0660223 -0.055083 -0.0600224 -0.0602613 -0.0655976 -0.0600224 -0.0643909 -0.0655976 -0.0703371 -0.0602613 -0.0655976 -0.0660223 -0.0717589 -0.0655976 -0.0703371 -0.0717589 -0.0768724 -0.0542254 -0.0573551 -0.0590269 -0.0624666 -0.0573551 -0.0598982 -0.0624666 -0.0653027 -0.0590269 -0.0624666 -0.0643909 -0.0681675 -0.0624666 -0.0653027 -0.0681675 -0.0713292 -0.0598982 -0.0618196 -0.0653027 -0.0675017 -0.0618196 -0.0630801 -0.0675017 -0.0690221 -0.0653027 -0.0675017 -0.0713292 -0.0738465 -0.0675017 -0.0690221 -0.0738465 -0.0756781 -0.0643909 -0.0681675 -0.0703371 -0.0744706 -0.0681675 -0.0713292 -0.0744706 -0.0779857 -0.0703371 -0.0744706 -0.0768724 -0.0813706 -0.0744706 -0.0779857 -0.0813706 -0.0852567 -0.0713292 -0.0738465 -0.0779857 -0.0808606 -0.0738465 -0.0756781 -0.0808606 -0.0830582 -0.0779857 -0.0808606 -0.0852567 -0.0885223 -0.0808606 -0.0830582 -0.0885223 -0.0911396 -9.99148e-05 -0.000100879 -0.0110792 -0.011078 -0.000100879 -0.000100075 -0.011078 -0.0109183 -0.0110792 -0.011078 -0.0196718 -0.0196551 -0.011078 -0.0109183 -0.0196551 -0.0193625 -0.000100075 -9.74017e-05 -0.0109183 -0.0105981 -9.74017e-05 -9.27786e-05 -0.0105981 -0.0101176 -0.0109183 -0.0105981 -0.0193625 -0.0187915 -0.0105981 -0.0101176 -0.0187915 -0.0179436 -0.0196718 -0.0196551 -0.0262433 -0.0262079 -0.0196551 -0.0193625 -0.0262079 -0.0258108 -0.0262433 -0.0262079 -0.0313098 -0.0312614 -0.0262079 -0.0258108 -0.0312614 -0.0307874 -0.0193625 -0.0187915 -0.0258108 -0.0250492 -0.0187915 -0.0179436 -0.0250492 -0.0239264 -0.0258108 -0.0250492 -0.0307874 -0.029885 -0.0250492 -0.0239264 -0.029885 -0.0285579 -9.27786e-05 -8.6157e-05 -0.0101176 -0.00948025 -8.6157e-05 -7.75315e-05 -0.00948025 -0.00869328 -0.0101176 -0.00948025 -0.0179436 -0.0168261 -0.00948025 -0.00869328 -0.0168261 -0.0154526 -7.75315e-05 -6.69483e-05 -0.00869328 -0.00776891 -6.69483e-05 -5.4525e-05 -0.00776891 -0.00672591 -0.00869328 -0.00776891 -0.0154526 -0.0138453 -0.00776891 -0.00672591 -0.0138453 -0.012038 -0.0179436 -0.0168261 -0.0239264 -0.0224523 -0.0168261 -0.0154526 -0.0224523 -0.0206457 -0.0239264 -0.0224523 -0.0285579 -0.0268182 -0.0224523 -0.0206457 -0.0268182 -0.0246879 -0.0154526 -0.0138453 -0.0206457 -0.0185366 -0.0138453 -0.012038 -0.0185366 -0.0161688 -0.0206457 -0.0185366 -0.0246879 -0.022202 -0.0185366 -0.0161688 -0.022202 -0.0194115 -0.0313098 -0.0312614 -0.0353671 -0.035317 -0.0312614 -0.0307874 -0.035317 -0.0347916 -0.0353671 -0.035317 -0.0388505 -0.0388138 -0.035317 -0.0347916 -0.0388138 -0.0382602 -0.0307874 -0.029885 -0.0347916 -0.0337872 -0.029885 -0.0285579 -0.0337872 -0.0323073 -0.0347916 -0.0337872 -0.0382602 -0.0371837 -0.0337872 -0.0323073 -0.0371837 -0.0355863 -0.0388505 -0.0388138 -0.0421232 -0.0421181 -0.0388138 -0.0382602 -0.0421181 -0.0415575 -0.0421232 -0.0421181 -0.045471 -0.0455182 -0.0421181 -0.0415575 -0.0455182 -0.0449718 -0.0382602 -0.0371837 -0.0415575 -0.0404323 -0.0371837 -0.0355863 -0.0404323 -0.0387412 -0.0415575 -0.0404323 -0.0449718 -0.0438177 -0.0404323 -0.0387412 -0.0438177 -0.0420495 -0.0285579 -0.0268182 -0.0323073 -0.0303642 -0.0268182 -0.0246879 -0.0303642 -0.0279817 -0.0323073 -0.0303642 -0.0355863 -0.0334793 -0.0303642 -0.0279817 -0.0334793 -0.0308864 -0.0246879 -0.022202 -0.0279817 -0.0251977 -0.022202 -0.0194115 -0.0251977 -0.0220682 -0.0279817 -0.0251977 -0.0308864 -0.0278471 -0.0251977 -0.0220682 -0.0278471 -0.0244206 -0.0355863 -0.0334793 -0.0387412 -0.0364928 -0.0334793 -0.0308864 -0.0364928 -0.0337092 -0.0387412 -0.0364928 -0.0420495 -0.0396712 -0.0364928 -0.0337092 -0.0396712 -0.0367015 -0.0308864 -0.0278471 -0.0337092 -0.03043 -0.0278471 -0.0244206 -0.03043 -0.0267172 -0.0337092 -0.03043 -0.0367015 -0.033179 -0.03043 -0.0267172 -0.033179 -0.0291677 -5.4525e-05 -4.04722e-05 -0.00672591 -0.00559196 -4.04722e-05 -2.52586e-05 -0.00559196 -0.00440591 -0.00672591 -0.00559196 -0.012038 -0.0100786 -0.00559196 -0.00440591 -0.0100786 -0.0080334 -2.52586e-05 -9.28299e-06 -0.00440591 -0.00322354 -9.28299e-06 4.68238e-06 -0.00322354 -0.00210486 -0.00440591 -0.00322354 -0.0080334 -0.00599289 -0.00322354 -0.00210486 -0.00599289 -0.00405692 -0.012038 -0.0100786 -0.0161688 -0.0136046 -0.0100786 -0.0080334 -0.0136046 -0.0109278 -0.0161688 -0.0136046 -0.0194115 -0.0163879 -0.0136046 -0.0109278 -0.0163879 -0.0132266 -0.0080334 -0.00599289 -0.0109278 -0.00824963 -0.00599289 -0.00405692 -0.00824963 -0.00569381 -0.0109278 -0.00824963 -0.0132266 -0.0100525 -0.00824963 -0.00569381 -0.0100525 -0.00700583 4.68238e-06 1.66018e-05 -0.00210486 -0.00119189 1.66018e-05 5.60104e-05 -0.00119189 -0.000250792 -0.00210486 -0.00119189 -0.00405692 -0.00242025 -0.00119189 -0.000250792 -0.00242025 -0.000856083 5.60104e-05 -1.39498e-05 -0.000250792 -0.00105625 -1.39498e-05 0.00843204 -0.00105625 0.00748242 -0.000250792 -0.00105625 -0.000856083 -0.0012843 -0.00105625 0.00748242 -0.0012843 0.00779478 -0.00405692 -0.00242025 -0.00569381 -0.00348063 -0.00242025 -0.000856083 -0.00348063 -0.00141131 -0.00569381 -0.00348063 -0.00700583 -0.00432633 -0.00348063 -0.00141131 -0.00432633 -0.00184807 -0.000856083 -0.0012843 -0.00141131 -0.00146368 -0.0012843 0.00779478 -0.00146368 0.00764 -0.00141131 -0.00146368 -0.00184807 -0.00158229 -0.00146368 0.00764 -0.00158229 0.00754489 -0.0194115 -0.0163879 -0.0220682 -0.0186712 -0.0163879 -0.0132266 -0.0186712 -0.0151109 -0.0220682 -0.0186712 -0.0244206 -0.0206908 -0.0186712 -0.0151109 -0.0206908 -0.0167707 -0.0132266 -0.0100525 -0.0151109 -0.0115241 -0.0100525 -0.00700583 -0.0115241 -0.00806573 -0.0151109 -0.0115241 -0.0167707 -0.0128091 -0.0115241 -0.00806573 -0.0128091 -0.00897796 -0.0244206 -0.0206908 -0.0267172 -0.0226606 -0.0206908 -0.0167707 -0.0226606 -0.0183831 -0.0267172 -0.0226606 -0.0291677 -0.0247639 -0.0226606 -0.0183831 -0.0247639 -0.0201025 -0.0167707 -0.0128091 -0.0183831 -0.0140482 -0.0128091 -0.00897796 -0.0140482 -0.00984756 -0.0183831 -0.0140482 -0.0201025 -0.0153651 -0.0140482 -0.00984756 -0.0153651 -0.0107669 -0.00700583 -0.00432633 -0.00806573 -0.00499632 -0.00432633 -0.00184807 -0.00499632 -0.00218054 -0.00806573 -0.00499632 -0.00897796 -0.00556102 -0.00499632 -0.00218054 -0.00556102 -0.00245086 -0.00184807 -0.00158229 -0.00218054 -0.00167189 -0.00158229 0.00754489 -0.00167189 0.00752094 -0.00218054 -0.00167189 -0.00245086 -0.00175145 -0.00167189 0.00752094 -0.00175145 0.00756374 -0.00897796 -0.00556102 -0.00984756 -0.00609171 -0.00556102 -0.00245086 -0.00609171 -0.00269825 -0.00984756 -0.00609171 -0.0107669 -0.00664978 -0.00609171 -0.00269825 -0.00664978 -0.00295512 -0.00245086 -0.00175145 -0.00269825 -0.0018332 -0.00175145 0.00756374 -0.0018332 0.00767637 -0.00269825 -0.0018332 -0.00295512 -0.00192716 -0.0018332 0.00767637 -0.00192716 0.00785837 -0.045471 -0.0455182 -0.0491077 -0.0492316 -0.0455182 -0.0449718 -0.0492316 -0.0487223 -0.0491077 -0.0492316 -0.0531875 -0.0534171 -0.0492316 -0.0487223 -0.0534171 -0.0529721 -0.0449718 -0.0438177 -0.0487223 -0.047559 -0.0438177 -0.0420495 -0.047559 -0.0457279 -0.0487223 -0.047559 -0.0529721 -0.051823 -0.047559 -0.0457279 -0.051823 -0.049946 -0.0531875 -0.0534171 -0.0578195 -0.0581899 -0.0534171 -0.0529721 -0.0581899 -0.0578437 -0.0578195 -0.0581899 -0.0630801 -0.0636344 -0.0581899 -0.0578437 -0.0636344 -0.0634317 -0.0529721 -0.051823 -0.0578437 -0.05674 -0.051823 -0.049946 -0.05674 -0.0548418 -0.0578437 -0.05674 -0.0634317 -0.0624172 -0.05674 -0.0548418 -0.0624172 -0.0605364 -0.0420495 -0.0396712 -0.0457279 -0.0432262 -0.0396712 -0.0367015 -0.0432262 -0.0400668 -0.0457279 -0.0432262 -0.049946 -0.047328 -0.0432262 -0.0400668 -0.047328 -0.0439732 -0.0367015 -0.033179 -0.0400668 -0.0362853 -0.033179 -0.0291677 -0.0362853 -0.0319471 -0.0400668 -0.0362853 -0.0439732 -0.0399114 -0.0362853 -0.0319471 -0.0399114 -0.035208 -0.049946 -0.047328 -0.0548418 -0.0521216 -0.047328 -0.0439732 -0.0521216 -0.0485701 -0.0548418 -0.0521216 -0.0605364 -0.0577418 -0.0521216 -0.0485701 -0.0577418 -0.0540043 -0.0439732 -0.0399114 -0.0485701 -0.0442074 -0.0399114 -0.035208 -0.0442074 -0.0390956 -0.0485701 -0.0442074 -0.0540043 -0.0493277 -0.0442074 -0.0390956 -0.0493277 -0.0437659 -0.0630801 -0.0636344 -0.0690221 -0.0698128 -0.0636344 -0.0634317 -0.0698128 -0.0698118 -0.0690221 -0.0698128 -0.0756781 -0.0767682 -0.0698128 -0.0698118 -0.0767682 -0.0770434 -0.0634317 -0.0624172 -0.0698118 -0.0689477 -0.0624172 -0.0605364 -0.0689477 -0.0671433 -0.0698118 -0.0689477 -0.0770434 -0.0764133 -0.0689477 -0.0671433 -0.0764133 -0.0747731 -0.0756781 -0.0767682 -0.0830582 -0.0845204 -0.0767682 -0.0770434 -0.0845204 -0.0851643 -0.0830582 -0.0845204 -0.0911396 -0.0930534 -0.0845204 -0.0851643 -0.0930534 -0.0941748 -0.0770434 -0.0764133 -0.0851643 -0.0848788 -0.0764133 -0.0747731 -0.0848788 -0.0835272 -0.0851643 -0.0848788 -0.0941748 -0.094374 -0.0848788 -0.0835272 -0.094374 -0.0934791 -0.0605364 -0.0577418 -0.0671433 -0.0643245 -0.0577418 -0.0540043 -0.0643245 -0.0604334 -0.0671433 -0.0643245 -0.0747731 -0.0720131 -0.0643245 -0.0604334 -0.0720131 -0.0680345 -0.0540043 -0.0493277 -0.0604334 -0.0554473 -0.0493277 -0.0437659 -0.0554473 -0.0494029 -0.0604334 -0.0554473 -0.0680345 -0.0627741 -0.0554473 -0.0494029 -0.0627741 -0.0562365 -0.0747731 -0.0720131 -0.0835272 -0.0809545 -0.0720131 -0.0680345 -0.0809545 -0.0770057 -0.0835272 -0.0809545 -0.0934791 -0.0912807 -0.0809545 -0.0770057 -0.09128