# vtk DataFile Version 3.0
#This file was generated by the deal.II library on 2026/1/5 at 14:19:38
ASCII
DATASET UNSTRUCTURED_GRID

POINTS 4096 double
0 0 0
0.03125 0 0
0 0.03125 0
0.03125 0.03125 0
0.03125 0 0
0.0625 0 0
0.03125 0.03125 0
0.0625 0.03125 0
0 0.03125 0
0.03125 0.03125 0
0 0.0625 0
0.03125 0.0625 0
0.03125 0.03125 0
0.0625 0.03125 0
0.03125 0.0625 0
0.0625 0.0625 0
0.0625 0 0
0.09375 0 0
0.0625 0.03125 0
0.09375 0.03125 0
0.09375 0 0
0.125 0 0
0.09375 0.03125 0
0.125 0.03125 0
0.0625 0.03125 0
0.09375 0.03125 0
0.0625 0.0625 0
0.09375 0.0625 0
0.09375 0.03125 0
0.125 0.03125 0
0.09375 0.0625 0
0.125 0.0625 0
0 0.0625 0
0.03125 0.0625 0
0 0.09375 0
0.03125 0.09375 0
0.03125 0.0625 0
0.0625 0.0625 0
0.03125 0.09375 0
0.0625 0.09375 0
0 0.09375 0
0.03125 0.09375 0
0 0.125 0
0.03125 0.125 0
0.03125 0.09375 0
0.0625 0.09375 0
0.03125 0.125 0
0.0625 0.125 0
0.0625 0.0625 0
0.09375 0.0625 0
0.0625 0.09375 0
0.09375 0.09375 0
0.09375 0.0625 0
0.125 0.0625 0
0.09375 0.09375 0
0.125 0.09375 0
0.0625 0.09375 0
0.09375 0.09375 0
0.0625 0.125 0
0.09375 0.125 0
0.09375 0.09375 0
0.125 0.09375 0
0.09375 0.125 0
0.125 0.125 0
0.125 0 0
0.15625 0 0
0.125 0.03125 0
0.15625 0.03125 0
0.15625 0 0
0.1875 0 0
0.15625 0.03125 0
0.1875 0.03125 0
0.125 0.03125 0
0.15625 0.03125 0
0.125 0.0625 0
0.15625 0.0625 0
0.15625 0.03125 0
0.1875 0.03125 0
0.15625 0.0625 0
0.1875 0.0625 0
0.1875 0 0
0.21875 0 0
0.1875 0.03125 0
0.21875 0.03125 0
0.21875 0 0
0.25 0 0
0.21875 0.03125 0
0.25 0.03125 0
0.1875 0.03125 0
0.21875 0.03125 0
0.1875 0.0625 0
0.21875 0.0625 0
0.21875 0.03125 0
0.25 0.03125 0
0.21875 0.0625 0
0.25 0.0625 0
0.125 0.0625 0
0.15625 0.0625 0
0.125 0.09375 0
0.15625 0.09375 0
0.15625 0.0625 0
0.1875 0.0625 0
0.15625 0.09375 0
0.1875 0.09375 0
0.125 0.09375 0
0.15625 0.09375 0
0.125 0.125 0
0.15625 0.125 0
0.15625 0.09375 0
0.1875 0.09375 0
0.15625 0.125 0
0.1875 0.125 0
0.1875 0.0625 0
0.21875 0.0625 0
0.1875 0.09375 0
0.21875 0.09375 0
0.21875 0.0625 0
0.25 0.0625 0
0.21875 0.09375 0
0.25 0.09375 0
0.1875 0.09375 0
0.21875 0.09375 0
0.1875 0.125 0
0.21875 0.125 0
0.21875 0.09375 0
0.25 0.09375 0
0.21875 0.125 0
0.25 0.125 0
0 0.125 0
0.03125 0.125 0
0 0.15625 0
0.03125 0.15625 0
0.03125 0.125 0
0.0625 0.125 0
0.03125 0.15625 0
0.0625 0.15625 0
0 0.15625 0
0.03125 0.15625 0
0 0.1875 0
0.03125 0.1875 0
0.03125 0.15625 0
0.0625 0.15625 0
0.03125 0.1875 0
0.0625 0.1875 0
0.0625 0.125 0
0.09375 0.125 0
0.0625 0.15625 0
0.09375 0.15625 0
0.09375 0.125 0
0.125 0.125 0
0.09375 0.15625 0
0.125 0.15625 0
0.0625 0.15625 0
0.09375 0.15625 0
0.0625 0.1875 0
0.09375 0.1875 0
0.09375 0.15625 0
0.125 0.15625 0
0.09375 0.1875 0
0.125 0.1875 0
0 0.1875 0
0.03125 0.1875 0
0 0.21875 0
0.03125 0.21875 0
0.03125 0.1875 0
0.0625 0.1875 0
0.03125 0.21875 0
0.0625 0.21875 0
0 0.21875 0
0.03125 0.21875 0
0 0.25 0
0.03125 0.25 0
0.03125 0.21875 0
0.0625 0.21875 0
0.03125 0.25 0
0.0625 0.25 0
0.0625 0.1875 0
0.09375 0.1875 0
0.0625 0.21875 0
0.09375 0.21875 0
0.09375 0.1875 0
0.125 0.1875 0
0.09375 0.21875 0
0.125 0.21875 0
0.0625 0.21875 0
0.09375 0.21875 0
0.0625 0.25 0
0.09375 0.25 0
0.09375 0.21875 0
0.125 0.21875 0
0.09375 0.25 0
0.125 0.25 0
0.125 0.125 0
0.15625 0.125 0
0.125 0.15625 0
0.15625 0.15625 0
0.15625 0.125 0
0.1875 0.125 0
0.15625 0.15625 0
0.1875 0.15625 0
0.125 0.15625 0
0.15625 0.15625 0
0.125 0.1875 0
0.15625 0.1875 0
0.15625 0.15625 0
0.1875 0.15625 0
0.15625 0.1875 0
0.1875 0.1875 0
0.1875 0.125 0
0.21875 0.125 0
0.1875 0.15625 0
0.21875 0.15625 0
0.21875 0.125 0
0.25 0.125 0
0.21875 0.15625 0
0.25 0.15625 0
0.1875 0.15625 0
0.21875 0.15625 0
0.1875 0.1875 0
0.21875 0.1875 0
0.21875 0.15625 0
0.25 0.15625 0
0.21875 0.1875 0
0.25 0.1875 0
0.125 0.1875 0
0.15625 0.1875 0
0.125 0.21875 0
0.15625 0.21875 0
0.15625 0.1875 0
0.1875 0.1875 0
0.15625 0.21875 0
0.1875 0.21875 0
0.125 0.21875 0
0.15625 0.21875 0
0.125 0.25 0
0.15625 0.25 0
0.15625 0.21875 0
0.1875 0.21875 0
0.15625 0.25 0
0.1875 0.25 0
0.1875 0.1875 0
0.21875 0.1875 0
0.1875 0.21875 0
0.21875 0.21875 0
0.21875 0.1875 0
0.25 0.1875 0
0.21875 0.21875 0
0.25 0.21875 0
0.1875 0.21875 0
0.21875 0.21875 0
0.1875 0.25 0
0.21875 0.25 0
0.21875 0.21875 0
0.25 0.21875 0
0.21875 0.25 0
0.25 0.25 0
0.25 0 0
0.28125 0 0
0.25 0.03125 0
0.28125 0.03125 0
0.28125 0 0
0.3125 0 0
0.28125 0.03125 0
0.3125 0.03125 0
0.25 0.03125 0
0.28125 0.03125 0
0.25 0.0625 0
0.28125 0.0625 0
0.28125 0.03125 0
0.3125 0.03125 0
0.28125 0.0625 0
0.3125 0.0625 0
0.3125 0 0
0.34375 0 0
0.3125 0.03125 0
0.34375 0.03125 0
0.34375 0 0
0.375 0 0
0.34375 0.03125 0
0.375 0.03125 0
0.3125 0.03125 0
0.34375 0.03125 0
0.3125 0.0625 0
0.34375 0.0625 0
0.34375 0.03125 0
0.375 0.03125 0
0.34375 0.0625 0
0.375 0.0625 0
0.25 0.0625 0
0.28125 0.0625 0
0.25 0.09375 0
0.28125 0.09375 0
0.28125 0.0625 0
0.3125 0.0625 0
0.28125 0.09375 0
0.3125 0.09375 0
0.25 0.09375 0
0.28125 0.09375 0
0.25 0.125 0
0.28125 0.125 0
0.28125 0.09375 0
0.3125 0.09375 0
0.28125 0.125 0
0.3125 0.125 0
0.3125 0.0625 0
0.34375 0.0625 0
0.3125 0.09375 0
0.34375 0.09375 0
0.34375 0.0625 0
0.375 0.0625 0
0.34375 0.09375 0
0.375 0.09375 0
0.3125 0.09375 0
0.34375 0.09375 0
0.3125 0.125 0
0.34375 0.125 0
0.34375 0.09375 0
0.375 0.09375 0
0.34375 0.125 0
0.375 0.125 0
0.375 0 0
0.40625 0 0
0.375 0.03125 0
0.40625 0.03125 0
0.40625 0 0
0.4375 0 0
0.40625 0.03125 0
0.4375 0.03125 0
0.375 0.03125 0
0.40625 0.03125 0
0.375 0.0625 0
0.40625 0.0625 0
0.40625 0.03125 0
0.4375 0.03125 0
0.40625 0.0625 0
0.4375 0.0625 0
0.4375 0 0
0.46875 0 0
0.4375 0.03125 0
0.46875 0.03125 0
0.46875 0 0
0.5 0 0
0.46875 0.03125 0
0.5 0.03125 0
0.4375 0.03125 0
0.46875 0.03125 0
0.4375 0.0625 0
0.46875 0.0625 0
0.46875 0.03125 0
0.5 0.03125 0
0.46875 0.0625 0
0.5 0.0625 0
0.375 0.0625 0
0.40625 0.0625 0
0.375 0.09375 0
0.40625 0.09375 0
0.40625 0.0625 0
0.4375 0.0625 0
0.40625 0.09375 0
0.4375 0.09375 0
0.375 0.09375 0
0.40625 0.09375 0
0.375 0.125 0
0.40625 0.125 0
0.40625 0.09375 0
0.4375 0.09375 0
0.40625 0.125 0
0.4375 0.125 0
0.4375 0.0625 0
0.46875 0.0625 0
0.4375 0.09375 0
0.46875 0.09375 0
0.46875 0.0625 0
0.5 0.0625 0
0.46875 0.09375 0
0.5 0.09375 0
0.4375 0.09375 0
0.46875 0.09375 0
0.4375 0.125 0
0.46875 0.125 0
0.46875 0.09375 0
0.5 0.09375 0
0.46875 0.125 0
0.5 0.125 0
0.25 0.125 0
0.28125 0.125 0
0.25 0.15625 0
0.28125 0.15625 0
0.28125 0.125 0
0.3125 0.125 0
0.28125 0.15625 0
0.3125 0.15625 0
0.25 0.15625 0
0.28125 0.15625 0
0.25 0.1875 0
0.28125 0.1875 0
0.28125 0.15625 0
0.3125 0.15625 0
0.28125 0.1875 0
0.3125 0.1875 0
0.3125 0.125 0
0.34375 0.125 0
0.3125 0.15625 0
0.34375 0.15625 0
0.34375 0.125 0
0.375 0.125 0
0.34375 0.15625 0
0.375 0.15625 0
0.3125 0.15625 0
0.34375 0.15625 0
0.3125 0.1875 0
0.34375 0.1875 0
0.34375 0.15625 0
0.375 0.15625 0
0.34375 0.1875 0
0.375 0.1875 0
0.25 0.1875 0
0.28125 0.1875 0
0.25 0.21875 0
0.28125 0.21875 0
0.28125 0.1875 0
0.3125 0.1875 0
0.28125 0.21875 0
0.3125 0.21875 0
0.25 0.21875 0
0.28125 0.21875 0
0.25 0.25 0
0.28125 0.25 0
0.28125 0.21875 0
0.3125 0.21875 0
0.28125 0.25 0
0.3125 0.25 0
0.3125 0.1875 0
0.34375 0.1875 0
0.3125 0.21875 0
0.34375 0.21875 0
0.34375 0.1875 0
0.375 0.1875 0
0.34375 0.21875 0
0.375 0.21875 0
0.3125 0.21875 0
0.34375 0.21875 0
0.3125 0.25 0
0.34375 0.25 0
0.34375 0.21875 0
0.375 0.21875 0
0.34375 0.25 0
0.375 0.25 0
0.375 0.125 0
0.40625 0.125 0
0.375 0.15625 0
0.40625 0.15625 0
0.40625 0.125 0
0.4375 0.125 0
0.40625 0.15625 0
0.4375 0.15625 0
0.375 0.15625 0
0.40625 0.15625 0
0.375 0.1875 0
0.40625 0.1875 0
0.40625 0.15625 0
0.4375 0.15625 0
0.40625 0.1875 0
0.4375 0.1875 0
0.4375 0.125 0
0.46875 0.125 0
0.4375 0.15625 0
0.46875 0.15625 0
0.46875 0.125 0
0.5 0.125 0
0.46875 0.15625 0
0.5 0.15625 0
0.4375 0.15625 0
0.46875 0.15625 0
0.4375 0.1875 0
0.46875 0.1875 0
0.46875 0.15625 0
0.5 0.15625 0
0.46875 0.1875 0
0.5 0.1875 0
0.375 0.1875 0
0.40625 0.1875 0
0.375 0.21875 0
0.40625 0.21875 0
0.40625 0.1875 0
0.4375 0.1875 0
0.40625 0.21875 0
0.4375 0.21875 0
0.375 0.21875 0
0.40625 0.21875 0
0.375 0.25 0
0.40625 0.25 0
0.40625 0.21875 0
0.4375 0.21875 0
0.40625 0.25 0
0.4375 0.25 0
0.4375 0.1875 0
0.46875 0.1875 0
0.4375 0.21875 0
0.46875 0.21875 0
0.46875 0.1875 0
0.5 0.1875 0
0.46875 0.21875 0
0.5 0.21875 0
0.4375 0.21875 0
0.46875 0.21875 0
0.4375 0.25 0
0.46875 0.25 0
0.46875 0.21875 0
0.5 0.21875 0
0.46875 0.25 0
0.5 0.25 0
0 0.25 0
0.03125 0.25 0
0 0.28125 0
0.03125 0.28125 0
0.03125 0.25 0
0.0625 0.25 0
0.03125 0.28125 0
0.0625 0.28125 0
0 0.28125 0
0.03125 0.28125 0
0 0.3125 0
0.03125 0.3125 0
0.03125 0.28125 0
0.0625 0.28125 0
0.03125 0.3125 0
0.0625 0.3125 0
0.0625 0.25 0
0.09375 0.25 0
0.0625 0.28125 0
0.09375 0.28125 0
0.09375 0.25 0
0.125 0.25 0
0.09375 0.28125 0
0.125 0.28125 0
0.0625 0.28125 0
0.09375 0.28125 0
0.0625 0.3125 0
0.09375 0.3125 0
0.09375 0.28125 0
0.125 0.28125 0
0.09375 0.3125 0
0.125 0.3125 0
0 0.3125 0
0.03125 0.3125 0
0 0.34375 0
0.03125 0.34375 0
0.03125 0.3125 0
0.0625 0.3125 0
0.03125 0.34375 0
0.0625 0.34375 0
0 0.34375 0
0.03125 0.34375 0
0 0.375 0
0.03125 0.375 0
0.03125 0.34375 0
0.0625 0.34375 0
0.03125 0.375 0
0.0625 0.375 0
0.0625 0.3125 0
0.09375 0.3125 0
0.0625 0.34375 0
0.09375 0.34375 0
0.09375 0.3125 0
0.125 0.3125 0
0.09375 0.34375 0
0.125 0.34375 0
0.0625 0.34375 0
0.09375 0.34375 0
0.0625 0.375 0
0.09375 0.375 0
0.09375 0.34375 0
0.125 0.34375 0
0.09375 0.375 0
0.125 0.375 0
0.125 0.25 0
0.15625 0.25 0
0.125 0.28125 0
0.15625 0.28125 0
0.15625 0.25 0
0.1875 0.25 0
0.15625 0.28125 0
0.1875 0.28125 0
0.125 0.28125 0
0.15625 0.28125 0
0.125 0.3125 0
0.15625 0.3125 0
0.15625 0.28125 0
0.1875 0.28125 0
0.15625 0.3125 0
0.1875 0.3125 0
0.1875 0.25 0
0.21875 0.25 0
0.1875 0.28125 0
0.21875 0.28125 0
0.21875 0.25 0
0.25 0.25 0
0.21875 0.28125 0
0.25 0.28125 0
0.1875 0.28125 0
0.21875 0.28125 0
0.1875 0.3125 0
0.21875 0.3125 0
0.21875 0.28125 0
0.25 0.28125 0
0.21875 0.3125 0
0.25 0.3125 0
0.125 0.3125 0
0.15625 0.3125 0
0.125 0.34375 0
0.15625 0.34375 0
0.15625 0.3125 0
0.1875 0.3125 0
0.15625 0.34375 0
0.1875 0.34375 0
0.125 0.34375 0
[...]
POINT_DATA 4096
SCALARS u_x double 1
LOOKUP_TABLE default
-1.20453e-05 1.36485e-05 -6.23376e-05 -4.10978e-05 1.36485e-05 2.30394e-05 -4.10978e-05 -0.000345662 -6.23376e-05 -4.10978e-05 -0.000187145 -0.000201728 -4.10978e-05 -0.000345662 -0.000201728 -0.000920472 2.30394e-05 2.14604e-05 -0.000345662 -0.000936478 2.14604e-05 1.33533e-05 -0.000936478 -0.00177999 -0.000345662 -0.000936478 -0.000920472 -0.00207745 -0.000936478 -0.00177999 -0.00207745 -0.00362814 -0.000187145 -0.000201728 -0.000329929 -0.000360986 -0.000201728 -0.000920472 -0.000360986 -0.00149444 -0.000329929 -0.000360986 -0.000443178 -0.000495014 -0.000360986 -0.00149444 -0.000495014 -0.00199251 -0.000920472 -0.00207745 -0.00149444 -0.00317688 -0.00207745 -0.00362814 -0.00317688 -0.00534221 -0.00149444 -0.00317688 -0.00199251 -0.00414183 -0.00317688 -0.00534221 -0.00414183 -0.00684336 1.33533e-05 2.25996e-06 -0.00177999 -0.0027994 2.25996e-06 -9.86386e-06 -0.0027994 -0.00392149 -0.00177999 -0.0027994 -0.00362814 -0.00545687 -0.0027994 -0.00392149 -0.00545687 -0.00745244 -9.86386e-06 -2.20233e-05 -0.00392149 -0.005084 -2.20233e-05 -3.37106e-05 -0.005084 -0.00623759 -0.00392149 -0.005084 -0.00745244 -0.00951437 -0.005084 -0.00623759 -0.00951437 -0.0115595 -0.00362814 -0.00545687 -0.00534221 -0.00784092 -0.00545687 -0.00745244 -0.00784092 -0.0105385 -0.00534221 -0.00784092 -0.00684336 -0.0099119 -0.00784092 -0.0105385 -0.0099119 -0.0131928 -0.00745244 -0.00951437 -0.0105385 -0.0133113 -0.00951437 -0.0115595 -0.0133113 -0.0160543 -0.0105385 -0.0133113 -0.0131928 -0.0165457 -0.0133113 -0.0160543 -0.0165457 -0.0198512 -0.000443178 -0.000495014 -0.00050111 -0.000607282 -0.000495014 -0.00199251 -0.000607282 -0.00240668 -0.00050111 -0.000607282 -0.000489796 -0.000707142 -0.000607282 -0.00240668 -0.000707142 -0.00275373 -0.00199251 -0.00414183 -0.00240668 -0.00496233 -0.00414183 -0.00684336 -0.00496233 -0.00813228 -0.00240668 -0.00496233 -0.00275373 -0.00566629 -0.00496233 -0.00813228 -0.00566629 -0.00925166 -0.000489796 -0.000707142 -0.000400964 -0.000803895 -0.000707142 -0.00275373 -0.000803895 -0.00305672 -0.000400964 -0.000803895 -0.000228918 -0.000905667 -0.000803895 -0.00305672 -0.000905667 -0.00333829 -0.00275373 -0.00566629 -0.00305672 -0.00629434 -0.00566629 -0.00925166 -0.00629434 -0.0102607 -0.00305672 -0.00629434 -0.00333829 -0.00688823 -0.00629434 -0.0102607 -0.00688823 -0.0112209 -0.00684336 -0.0099119 -0.00813228 -0.0116962 -0.0099119 -0.0131928 -0.0116962 -0.0154785 -0.00813228 -0.0116962 -0.00925166 -0.0132581 -0.0116962 -0.0154785 -0.0132581 -0.0174878 -0.0131928 -0.0165457 -0.0154785 -0.019324 -0.0165457 -0.0198512 -0.019324 -0.0231026 -0.0154785 -0.019324 -0.0174878 -0.0217714 -0.019324 -0.0231026 -0.0217714 -0.0259689 -0.00925166 -0.0132581 -0.0102607 -0.0146778 -0.0132581 -0.0174878 -0.0146778 -0.0193251 -0.0102607 -0.0146778 -0.0112209 -0.0160373 -0.0146778 -0.0193251 -0.0160373 -0.0210932 -0.0174878 -0.0217714 -0.0193251 -0.0240184 -0.0217714 -0.0259689 -0.0240184 -0.0286088 -0.0193251 -0.0240184 -0.0210932 -0.02619 -0.0240184 -0.0286088 -0.02619 -0.0311693 -3.37106e-05 -4.46834e-05 -0.00623759 -0.00734425 -4.46834e-05 -5.48274e-05 -0.00734425 -0.00837469 -0.00623759 -0.00734425 -0.0115595 -0.0135212 -0.00734425 -0.00837469 -0.0135212 -0.015347 -5.48274e-05 -6.40716e-05 -0.00837469 -0.00930588 -6.40716e-05 -7.23388e-05 -0.00930588 -0.0101189 -0.00837469 -0.00930588 -0.015347 -0.0169948 -0.00930588 -0.0101189 -0.0169948 -0.0184302 -0.0115595 -0.0135212 -0.0160543 -0.0186817 -0.0135212 -0.015347 -0.0186817 -0.0211242 -0.0160543 -0.0186817 -0.0198512 -0.0230108 -0.0186817 -0.0211242 -0.0230108 -0.0259437 -0.015347 -0.0169948 -0.0211242 -0.0233255 -0.0169948 -0.0184302 -0.0233255 -0.0252394 -0.0211242 -0.0233255 -0.0259437 -0.0285841 -0.0233255 -0.0252394 -0.0285841 -0.0308771 -7.23388e-05 -7.95244e-05 -0.0101189 -0.0107976 -7.95244e-05 -8.54917e-05 -0.0107976 -0.0113275 -0.0101189 -0.0107976 -0.0184302 -0.0196239 -0.0107976 -0.0113275 -0.0196239 -0.0205503 -8.54917e-05 -9.00737e-05 -0.0113275 -0.0116955 -9.00737e-05 -9.30821e-05 -0.0116955 -0.0118901 -0.0113275 -0.0116955 -0.0205503 -0.0211869 -0.0116955 -0.0118901 -0.0211869 -0.0215142 -0.0184302 -0.0196239 -0.0252394 -0.0268267 -0.0196239 -0.0205503 -0.0268267 -0.0280533 -0.0252394 -0.0268267 -0.0308771 -0.0327762 -0.0268267 -0.0280533 -0.0327762 -0.0342413 -0.0205503 -0.0211869 -0.0280533 -0.0288899 -0.0211869 -0.0215142 -0.0288899 -0.0293114 -0.0280533 -0.0288899 -0.0342413 -0.0352375 -0.0288899 -0.0293114 -0.0352375 -0.0357356 -0.0198512 -0.0230108 -0.0231026 -0.0267067 -0.0230108 -0.0259437 -0.0267067 -0.0300483 -0.0231026 -0.0267067 -0.0259689 -0.0299661 -0.0267067 -0.0300483 -0.0299661 -0.0336696 -0.0259437 -0.0285841 -0.0300483 -0.0330547 -0.0285841 -0.0308771 -0.0330547 -0.0356654 -0.0300483 -0.0330547 -0.0336696 -0.0370026 -0.0330547 -0.0356654 -0.0370026 -0.0399005 -0.0259689 -0.0299661 -0.0286088 -0.032976 -0.0299661 -0.0336696 -0.032976 -0.0370228 -0.0286088 -0.032976 -0.0311693 -0.0359055 -0.032976 -0.0370228 -0.0359055 -0.0402984 -0.0336696 -0.0370026 -0.0370228 -0.0406694 -0.0370026 -0.0399005 -0.0406694 -0.0438487 -0.0370228 -0.0406694 -0.0402984 -0.0442663 -0.0406694 -0.0438487 -0.0442663 -0.0477402 -0.0308771 -0.0327762 -0.0356654 -0.0378287 -0.0327762 -0.0342413 -0.0378287 -0.0394995 -0.0356654 -0.0378287 -0.0399005 -0.0423078 -0.0378287 -0.0394995 -0.0423078 -0.0441755 -0.0342413 -0.0352375 -0.0394995 -0.0406387 -0.0352375 -0.0357356 -0.0406387 -0.0412129 -0.0394995 -0.0406387 -0.0441755 -0.0454604 -0.0406387 -0.0412129 -0.0454604 -0.0461244 -0.0399005 -0.0423078 -0.0438487 -0.0465021 -0.0423078 -0.0441755 -0.0465021 -0.0485772 -0.0438487 -0.0465021 -0.0477402 -0.0506595 -0.0465021 -0.0485772 -0.0506595 -0.0529684 -0.0441755 -0.0454604 -0.0485772 -0.0500265 -0.0454604 -0.0461244 -0.0500265 -0.0508068 -0.0485772 -0.0500265 -0.0529684 -0.0546147 -0.0500265 -0.0508068 -0.0546147 -0.055549 -0.000228918 -0.000905667 3.12335e-05 -0.00101925 -0.000905667 -0.00333829 -0.00101925 -0.00361835 3.12335e-05 -0.00101925 0.000384646 -0.00115031 -0.00101925 -0.00361835 -0.00115031 -0.00391358 -0.00333829 -0.00688823 -0.00361835 -0.00748587 -0.00688823 -0.0112209 -0.00748587 -0.012189 -0.00361835 -0.00748587 -0.00391358 -0.00811973 -0.00748587 -0.012189 -0.00811973 -0.013214 0.000384646 -0.00115031 0.000837369 -0.00130372 -0.00115031 -0.00391358 -0.00130372 -0.00423776 0.000837369 -0.00130372 0.00139681 -0.00148389 -0.00130372 -0.00423776 -0.00148389 -0.00460272 -0.00391358 -0.00811973 -0.00423776 -0.00881715 -0.00811973 -0.013214 -0.00881715 -0.0143377 -0.00423776 -0.00881715 -0.00460272 -0.00960172 -0.00881715 -0.0143377 -0.00960172 -0.0155956 -0.0112209 -0.0160373 -0.012189 -0.0174119 -0.0160373 -0.0210932 -0.0174119 -0.0228858 -0.012189 -0.0174119 -0.013214 -0.018867 -0.0174119 -0.0228858 -0.018867 -0.0247838 -0.0210932 -0.02619 -0.0228858 -0.0283975 -0.02619 -0.0311693 -0.0283975 -0.0337792 -0.0228858 -0.0283975 -0.0247838 -0.0307359 -0.0283975 -0.0337792 -0.0307359 -0.0365462 -0.013214 -0.018867 -0.0143377 -0.020458 -0.018867 -0.0247838 -0.020458 -0.0268545 -0.0143377 -0.020458 -0.0155956 -0.0222316 -0.020458 -0.0268545 -0.0222316 -0.0291541 -0.0247838 -0.0307359 -0.0268545 -0.0332831 -0.0307359 -0.0365462 -0.0332831 -0.0395574 -0.0268545 -0.0332831 -0.0291541 -0.0361023 -0.0332831 -0.0395574 -0.0361023 -0.042881 0.00139681 -0.00148389 0.00207198 -0.00169527 -0.00148389 -0.00460272 -0.00169527 -0.0050194 0.00207198 -0.00169527 0.00287378 -0.00194272 -0.00169527 -0.0050194 -0.00194272 -0.00549918 -0.00460272 -0.00960172 -0.0050194 -0.0104952 -0.00960172 -0.0155956 -0.0104952 -0.0170201 -0.0050194 -0.0104952 -0.00549918 -0.0115197 -0.0104952 -0.0170201 -0.0115197 -0.018643 0.00287378 -0.00194272 0.00381532 -0.00223209 -0.00194272 -0.00549918 -0.00223209 -0.00605523 0.00381532 -0.00223209 0.00491239 -0.00257075 -0.00223209 -0.00605523 -0.00257075 -0.0067041 -0.00549918 -0.0115197 -0.00605523 -0.0127003 -0.0115197 -0.018643 -0.0127003 -0.0204992 -0.00605523 -0.0127003 -0.0067041 -0.0140672 -0.0127003 -0.0204992 -0.0140672 -0.0226288 -0.0155956 -0.0222316 -0.0170201 -0.0242292 -0.0222316 -0.0291541 -0.0242292 -0.0317304 -0.0170201 -0.0242292 -0.018643 -0.0264901 -0.0242292 -0.0317304 -0.0264901 -0.0346269 -0.0291541 -0.0361023 -0.0317304 -0.0392454 -0.0361023 -0.042881 -0.0392454 -0.0465702 -0.0317304 -0.0392454 -0.0346269 -0.042756 -0.0392454 -0.0465702 -0.042756 -0.0506658 -0.018643 -0.0264901 -0.0204992 -0.0290551 -0.0264901 -0.0346269 -0.0290551 -0.0378855 -0.0204992 -0.0290551 -0.0226288 -0.031969 -0.0290551 -0.0378855 -0.031969 -0.0415487 -0.0346269 -0.042756 -0.0378855 -0.0466726 -0.042756 -0.0506658 -0.0466726 -0.0551981 -0.0378855 -0.0466726 -0.0415487 -0.0510289 -0.0466726 -0.0551981 -0.0510289 -0.0601865 -0.0311693 -0.0359055 -0.0337792 -0.0389002 -0.0359055 -0.0402984 -0.0389002 -0.043658 -0.0337792 -0.0389002 -0.0365462 -0.0420797 -0.0389002 -0.043658 -0.0420797 -0.0472325 -0.0402984 -0.0442663 -0.043658 -0.04797 -0.0442663 -0.0477402 -0.04797 -0.0517664 -0.043658 -0.04797 -0.0472325 -0.051922 -0.04797 -0.0517664 -0.051922 -0.0560788 -0.0365462 -0.0420797 -0.0395574 -0.0455388 -0.0420797 -0.0472325 -0.0455388 -0.0511232 -0.0395574 -0.0455388 -0.042881 -0.0493491 -0.0455388 -0.0511232 -0.0493491 -0.0554043 -0.0472325 -0.051922 -0.0511232 -0.0562298 -0.051922 -0.0560788 -0.0562298 -0.060791 -0.0511232 -0.0562298 -0.0554043 -0.0609694 -0.0562298 -0.060791 -0.0609694 -0.0659812 -0.0477402 -0.0506595 -0.0517664 -0.0549848 -0.0506595 -0.0529684 -0.0549848 -0.0575666 -0.0517664 -0.0549848 -0.0560788 -0.0596397 -0.0549848 -0.0575666 -0.0596397 -0.0625439 -0.0529684 -0.0546147 -0.0575666 -0.0594545 -0.0546147 -0.055549 -0.0594545 -0.0605918 -0.0575666 -0.0594545 -0.0625439 -0.064729 -0.0594545 -0.0605918 -0.064729 -0.0661301 -0.0560788 -0.0596397 -0.060791 -0.0647447 -0.0596397 -0.0625439 -0.0647447 -0.0680288 -0.060791 -0.0647447 -0.0659812 -0.0703812 -0.0647447 -0.0680288 -0.0703812 -0.0741081 -0.0625439 -0.064729 -0.0680288 -0.0705766 -0.064729 -0.0661301 -0.0705766 -0.0723147 -0.0680288 -0.0705766 -0.0741081 -0.0770926 -0.0705766 -0.0723147 -0.0770926 -0.0792534 -0.042881 -0.0493491 -0.0465702 -0.0535631 -0.0493491 -0.0554043 -0.0535631 -0.0601257 -0.0465702 -0.0535631 -0.0506658 -0.0582157 -0.0535631 -0.0601257 -0.0582157 -0.065315 -0.0554043 -0.0609694 -0.0601257 -0.0661878 -0.0609694 -0.0659812 -0.0661878 -0.071694 -0.0601257 -0.0661878 -0.065315 -0.0719042 -0.0661878 -0.071694 -0.0719042 -0.0779397 -0.0506658 -0.0582157 -0.0551981 -0.063326 -0.0582157 -0.065315 -0.063326 -0.070977 -0.0551981 -0.063326 -0.0601865 -0.068894 -0.063326 -0.070977 -0.068894 -0.0770883 -0.065315 -0.0719042 -0.070977 -0.078107 -0.0719042 -0.0779397 -0.078107 -0.0846897 -0.070977 -0.078107 -0.0770883 -0.0847466 -0.078107 -0.0846897 -0.0847466 -0.091866 -0.0659812 -0.0703812 -0.071694 -0.0765925 -0.0703812 -0.0741081 -0.0765925 -0.0808265 -0.071694 -0.0765925 -0.0779397 -0.0833814 -0.0765925 -0.0808265 -0.0833814 -0.0881819 -0.0741081 -0.0770926 -0.0808265 -0.0843271 -0.0770926 -0.0792534 -0.0843271 -0.0870075 -0.0808265 -0.0843271 -0.0881819 -0.0922777 -0.0843271 -0.0870075 -0.0922777 -0.0955809 -0.0779397 -0.0833814 -0.0846897 -0.0907026 -0.0833814 -0.0881819 -0.0907026 -0.0961143 -0.0846897 -0.0907026 -0.091866 -0.0984484 -0.0907026 -0.0961143 -0.0984484 -0.104486 -0.0881819 -0.0922777 -0.0961143 -0.100874 -0.0922777 -0.0955809 -0.100874 -0.104898 -0.0961143 -0.100874 -0.104486 -0.109949 -0.100874 -0.104898 -0.109949 -0.114772 -9.30821e-05 -9.43217e-05 -0.0118901 -0.0119015 -9.43217e-05 -9.36051e-05 -0.0119015 -0.0117226 -0.0118901 -0.0119015 -0.0215142 -0.0215164 -0.0119015 -0.0117226 -0.0215164 -0.0211825 -9.36051e-05 -9.07669e-05 -0.0117226 -0.0113495 -9.07669e-05 -8.56853e-05 -0.0113495 -0.0107828 -0.0117226 -0.0113495 -0.0211825 -0.0205073 -0.0113495 -0.0107828 -0.0205073 -0.0194939 -0.0215142 -0.0215164 -0.0293114 -0.0292979 -0.0215164 -0.0211825 -0.0292979 -0.028836 -0.0293114 -0.0292979 -0.0357356 -0.0357121 -0.0292979 -0.028836 -0.0357121 -0.0351515 -0.0211825 -0.0205073 -0.028836 -0.0279203 -0.0205073 -0.0194939 -0.0279203 -0.0265562 -0.028836 -0.0279203 -0.0351515 -0.0340477 -0.0279203 -0.0265562 -0.0340477 -0.0324073 -8.56853e-05 -7.83056e-05 -0.0107828 -0.0100291 -7.83056e-05 -6.86629e-05 -0.0100291 -0.00910173 -0.0107828 -0.0100291 -0.0194939 -0.0181552 -0.0100291 -0.00910173 -0.0181552 -0.0165162 -6.86629e-05 -5.69114e-05 -0.00910173 -0.00802287 -5.69114e-05 -4.33603e-05 -0.00802287 -0.00682461 -0.00910173 -0.00802287 -0.0165162 -0.0146166 -0.00802287 -0.00682461 -0.0146166 -0.0125126 -0.0194939 -0.0181552 -0.0265562 -0.0247618 -0.0181552 -0.0165162 -0.0247618 -0.0225713 -0.0265562 -0.0247618 -0.0324073 -0.0302519 -0.0247618 -0.0225713 -0.0302519 -0.0276222 -0.0165162 -0.0146166 -0.0225713 -0.0200375 -0.0146166 -0.0125126 -0.0200375 -0.0172345 -0.0225713 -0.0200375 -0.0276222 -0.0245805 -0.0200375 -0.0172345 -0.0245805 -0.0212136 -0.0357356 -0.0357121 -0.0412129 -0.041195 -0.0357121 -0.0351515 -0.041195 -0.0405665 -0.0412129 -0.041195 -0.0461244 -0.0461363 -0.041195 -0.0405665 -0.0461363 -0.0454727 -0.0351515 -0.0340477 -0.0405665 -0.0393193 -0.0340477 -0.0324073 -0.0393193 -0.0374593 -0.0405665 -0.0393193 -0.0454727 -0.0441217 -0.0393193 -0.0374593 -0.0441217 -0.0420862 -0.0461244 -0.0461363 -0.0508068 -0.0508807 -0.0461363 -0.0454727 -0.0508807 -0.0502184 -0.0508068 -0.0508807 -0.055549 -0.055726 -0.0508807 -0.0502184 -0.055726 -0.0551069 -0.0454727 -0.0441217 -0.0502184 -0.0488012 -0.0441217 -0.0420862 -0.0488012 -0.0466261 -0.0502184 -0.0488012 -0.0551069 -0.0536631 -0.0488012 -0.0466261 -0.0536631 -0.051382 -0.0324073 -0.0302519 -0.0374593 -0.0350097 -0.0302519 -0.0276222 -0.0350097 -0.0320147 -0.0374593 -0.0350097 -0.0420862 -0.039388 -0.0350097 -0.0320147 -0.039388 -0.036073 -0.0276222 -0.0245805 -0.0320147 -0.0285435 -0.0245805 -0.0212136 -0.0285435 -0.0246928 -0.0320147 -0.0285435 -0.036073 -0.0322146 -0.0285435 -0.0246928 -0.0322146 -0.0279184 -0.0420862 -0.039388 -0.0466261 -0.0437109 -0.039388 -0.036073 -0.0437109 -0.0400999 -0.0466261 -0.0437109 -0.051382 -0.0482734 -0.0437109 -0.0400999 -0.0482734 -0.0443774 -0.036073 -0.0322146 -0.0400999 -0.0358697 -0.0322146 -0.0279184 -0.0358697 -0.0311335 -0.0400999 -0.0358697 -0.0443774 -0.039771 -0.0358697 -0.0311335 -0.039771 -0.0345753 -4.33603e-05 -2.84907e-05 -0.00682461 -0.00555044 -2.84907e-05 -1.3076e-05 -0.00555044 -0.0042556 -0.00682461 -0.00555044 -0.0125126 -0.0102792 -0.00555044 -0.0042556 -0.0102792 -0.00800966 -1.3076e-05 2.11637e-06 -0.0042556 -0.00300939 2.11637e-06 1.43429e-05 -0.00300939 -0.00188135 -0.0042556 -0.00300939 -0.00800966 -0.00581706 -0.00300939 -0.00188135 -0.00581706 -0.00381642 -0.0125126 -0.0102792 -0.0172345 -0.0142588 -0.0102792 -0.00800966 -0.0142588 -0.0112296 -0.0172345 -0.0142588 -0.0212136 -0.0176342 -0.0142588 -0.0112296 -0.0176342 -0.0139801 -0.00800966 -0.00581706 -0.0112296 -0.00828804 -0.00581706 -0.00381642 -0.00828804 -0.00557834 -0.0112296 -0.00828804 -0.0139801 -0.0104133 -0.00828804 -0.00557834 -0.0104133 -0.00710052 1.43429e-05 2.31494e-05 -0.00188135 -0.00100118 2.31494e-05 5.27096e-05 -0.00100118 -0.000175033 -0.00188135 -0.00100118 -0.00381642 -0.00218852 -0.00100118 -0.000175033 -0.00218852 -0.000747992 5.27096e-05 -9.38631e-06 -0.000175033 -0.00085085 -9.38631e-06 0.00706058 -0.00085085 0.0062715 -0.000175033 -0.00085085 -0.000747992 -0.00105383 -0.00085085 0.0062715 -0.00105383 0.00650667 -0.00381642 -0.00218852 -0.00557834 -0.0033093 -0.00218852 -0.000747992 -0.0033093 -0.00132595 -0.00557834 -0.0033093 -0.00710052 -0.0042746 -0.0033093 -0.00132595 -0.0042746 -0.00181837 -0.000747992 -0.00105383 -0.00132595 -0.0012303 -0.00105383 0.00650667 -0.0012303 0.00633144 -0.00132595 -0.0012303 -0.00181837 -0.00135754 -0.0012303 0.00633144 -0.00135754 0.00619111 -0.0212136 -0.0176342 -0.0246928 -0.0205886 -0.0176342 -0.0139801 -0.0205886 -0.0163849 -0.0246928 -0.0205886 -0.0279184 -0.0233228 -0.0205886 -0.0163849 -0.0233228 -0.0185992 -0.0139801 -0.0104133 -0.0163849 -0.0122629 -0.0104133 -0.00710052 -0.0122629 -0.00841181 -0.0163849 -0.0122629 -0.0185992 -0.0139498 -0.0122629 -0.00841181 -0.0139498 -0.00958958 -0.0279184 -0.0233228 -0.0311335 -0.0260438 -0.0233228 -0.0185992 -0.0260438 -0.0207917 -0.0311335 -0.0260438 -0.0345753 -0.0289583 -0.0260438 -0.0207917 -0.0289583 -0.023135 -0.0185992 -0.0139498 -0.0207917 -0.0156051 -0.0139498 -0.00958958 -0.0156051 -0.0107295 -0.0207917 -0.0156051 -0.023135 -0.0173651 -0.0156051 -0.0107295 -0.0173651 -0.0119317 -0.00710052 -0.0042746 -0.00841181 -0.00509069 -0.0042746 -0.00181837 -0.00509069 -0.00222055 -0.00841181 -0.00509069 -0.00958958 -0.00580771 -0.00509069 -0.00222055 -0.00580771 -0.00256232 -0.00181837 -0.00135754 -0.00222055 -0.00145706 -0.00135754 0.00619111 -0.00145706 0.0061012 -0.00222055 -0.00145706 -0.00256232 -0.00154355 -0.00145706 0.0061012 -0.00154355 0.00606105 -0.00958958 -0.00580771 -0.0107295 -0.00648923 -0.00580771 -0.00256232 -0.00648923 -0.00287827 -0.0107295 -0.00648923 -0.0119317 -0.00720057 -0.00648923 -0.00287827 -0.00720057 -0.00320233 -0.00256232 -0.00154355 -0.00287827 -0.00162796 -0.00154355 0.00606105 -0.00162796 0.00607376 -0.00287827 -0.00162796 -0.00320233 -0.00172049 -0.00162796 0.00607376 -0.00172049 0.00613762 -0.055549 -0.055726 -0.0605918 -0.0609234 -0.055726 -0.0551069 -0.0609234 -0.0603984 -0.0605918 -0.0609234 -0.0661301 -0.0666803 -0.0609234 -0.0603984 -0.0666803 -0.0663134 -0.0551069 -0.0536631 -0.0603984 -0.0589744 -0.0536631 -0.051382 -0.0589744 -0.0566247 -0.0603984 -0.0589744 -0.0663134 -0.0649686 -0.0589744 -0.0566247 -0.0649686 -0.0625992 -0.0661301 -0.0666803 -0.0723147 -0.0731628 -0.0666803 -0.0663134 -0.0731628 -0.0730358 -0.0723147 -0.0731628 -0.0792534 -0.0804961 -0.0731628 -0.0730358 -0.0804961 -0.0807139 -0.0663134 -0.0649686 -0.0730358 -0.0718496 -0.0649686 -0.0625992 -0.0718496 -0.0695302 -0.0730358 -0.0718496 -0.0807139 -0.0797936 -0.0718496 -0.0695302 -0.0797936 -0.0776256 -0.051382 -0.0482734 -0.0566247 -0.0533464 -0.0482734 -0.0443774 -0.0533464 -0.0491705 -0.0566247 -0.0533464 -0.0625992 -0.0591831 -0.0533464 -0.0491705 -0.0591831 -0.0547361 -0.0443774 -0.039771 -0.0491705 -0.0441718 -0.039771 -0.0345753 -0.0441718 -0.038478 -0.0491705 -0.0441718 -0.0547361 -0.0493254 -0.0441718 -0.038478 -0.0493254 -0.0430827 -0.0625992 -0.0591831 -0.0695302 -0.0660277 -0.0591831 -0.0547361 -0.0660277 -0.0613331 -0.0695302 -0.0660277 -0.0776256 -0.0741203 -0.0660277 -0.0613331 -0.0741203 -0.0692309 -0.0547361 -0.0493254 -0.0613331 -0.0554977 -0.0493254 -0.0430827 -0.0554977 -0.0486514 -0.0613331 -0.0554977 -0.0692309 -0.0629792 -0.0554977 -0.0486514 -0.0629792 -0.0554828 -0.0792534 -0.0804961 -0.0870075 -0.0887598 -0.0804961 -0.0807139 -0.0887598 -0.0894539 -0.0870075 -0.0887598 -0.0955809 -0.097973 -0.0887598 -0.0894539 -0.097973 -0.0993012 -0.0807139 -0.0797936 -0.0894539 -0.088942 -0.0797936 -0.0776256 -0.088942 -0.0870693 -0.0894539 -0.088942 -0.0993012 -0.0993798 -0.088942 -0.0870693 -0.0993798 -0.097999 -0.0955809 -0.097973 -0.104898 -0.108066 -0.097973 -0.0993012 -0.108066 -0.110206 -0.104898 -0.108066 -0.114772 -0.118838 -0.108066 -0.110206 -0.118838 -0.121965 -0.0993012 -0.0993798 -0.110206 -0.111093 -0.0993798 -0.097999 -0.111093 -0.110456 -0.110206 -0.111093 -0.121965 -0.123898 -0.111093 -0.110456 -0.123898 -0.124301 -0.0776256 -0.0741203 -0.0870693 -0.0836928 -0.0741203 -0.0692309 -0.0836928 -0.078709 -0.0870693 -0.0836928 -0.097999 -0.0949458 -0.0836928 -0.078709 -0.0949458 -0.0900368 -0.0692309 -0.0629792 -0.078709 -0.0720902 -0.0629792 -0.0554828 -0.0720902 -0.0639226 -0.078709 -0.0720902 -0.0900368 -0.0831653 -0.0720902 -0.0639226 -0.0831653 -0.0743567 -0.097999 -0.0949458 -0.110456 -0.107995 -0.0949458 -0.0900368 -0.107995 -0.103419 -0.110456 -0.107995 -0.124301 -0.122776 -0.107995 -0.103419 -0.122776 -0.118894 -0.0900368 -0.0831653 -0.103419 -0.0965048 -0.0831653 -0.