# vtk DataFile Version 3.0
#This file was generated by the deal.II library on 2026/1/5 at 14:19:39
ASCII
DATASET UNSTRUCTURED_GRID

POINTS 4096 double
0 0 0
0.03125 0 0
0 0.03125 0
0.03125 0.03125 0
0.03125 0 0
0.0625 0 0
0.03125 0.03125 0
0.0625 0.03125 0
0 0.03125 0
0.03125 0.03125 0
0 0.0625 0
0.03125 0.0625 0
0.03125 0.03125 0
0.0625 0.03125 0
0.03125 0.0625 0
0.0625 0.0625 0
0.0625 0 0
0.09375 0 0
0.0625 0.03125 0
0.09375 0.03125 0
0.09375 0 0
0.125 0 0
0.09375 0.03125 0
0.125 0.03125 0
0.0625 0.03125 0
0.09375 0.03125 0
0.0625 0.0625 0
0.09375 0.0625 0
0.09375 0.03125 0
0.125 0.03125 0
0.09375 0.0625 0
0.125 0.0625 0
0 0.0625 0
0.03125 0.0625 0
0 0.09375 0
0.03125 0.09375 0
0.03125 0.0625 0
0.0625 0.0625 0
0.03125 0.09375 0
0.0625 0.09375 0
0 0.09375 0
0.03125 0.09375 0
0 0.125 0
0.03125 0.125 0
0.03125 0.09375 0
0.0625 0.09375 0
0.03125 0.125 0
0.0625 0.125 0
0.0625 0.0625 0
0.09375 0.0625 0
0.0625 0.09375 0
0.09375 0.09375 0
0.09375 0.0625 0
0.125 0.0625 0
0.09375 0.09375 0
0.125 0.09375 0
0.0625 0.09375 0
0.09375 0.09375 0
0.0625 0.125 0
0.09375 0.125 0
0.09375 0.09375 0
0.125 0.09375 0
0.09375 0.125 0
0.125 0.125 0
0.125 0 0
0.15625 0 0
0.125 0.03125 0
0.15625 0.03125 0
0.15625 0 0
0.1875 0 0
0.15625 0.03125 0
0.1875 0.03125 0
0.125 0.03125 0
0.15625 0.03125 0
0.125 0.0625 0
0.15625 0.0625 0
0.15625 0.03125 0
0.1875 0.03125 0
0.15625 0.0625 0
0.1875 0.0625 0
0.1875 0 0
0.21875 0 0
0.1875 0.03125 0
0.21875 0.03125 0
0.21875 0 0
0.25 0 0
0.21875 0.03125 0
0.25 0.03125 0
0.1875 0.03125 0
0.21875 0.03125 0
0.1875 0.0625 0
0.21875 0.0625 0
0.21875 0.03125 0
0.25 0.03125 0
0.21875 0.0625 0
0.25 0.0625 0
0.125 0.0625 0
0.15625 0.0625 0
0.125 0.09375 0
0.15625 0.09375 0
0.15625 0.0625 0
0.1875 0.0625 0
0.15625 0.09375 0
0.1875 0.09375 0
0.125 0.09375 0
0.15625 0.09375 0
0.125 0.125 0
0.15625 0.125 0
0.15625 0.09375 0
0.1875 0.09375 0
0.15625 0.125 0
0.1875 0.125 0
0.1875 0.0625 0
0.21875 0.0625 0
0.1875 0.09375 0
0.21875 0.09375 0
0.21875 0.0625 0
0.25 0.0625 0
0.21875 0.09375 0
0.25 0.09375 0
0.1875 0.09375 0
0.21875 0.09375 0
0.1875 0.125 0
0.21875 0.125 0
0.21875 0.09375 0
0.25 0.09375 0
0.21875 0.125 0
0.25 0.125 0
0 0.125 0
0.03125 0.125 0
0 0.15625 0
0.03125 0.15625 0
0.03125 0.125 0
0.0625 0.125 0
0.03125 0.15625 0
0.0625 0.15625 0
0 0.15625 0
0.03125 0.15625 0
0 0.1875 0
0.03125 0.1875 0
0.03125 0.15625 0
0.0625 0.15625 0
0.03125 0.1875 0
0.0625 0.1875 0
0.0625 0.125 0
0.09375 0.125 0
0.0625 0.15625 0
0.09375 0.15625 0
0.09375 0.125 0
0.125 0.125 0
0.09375 0.15625 0
0.125 0.15625 0
0.0625 0.15625 0
0.09375 0.15625 0
0.0625 0.1875 0
0.09375 0.1875 0
0.09375 0.15625 0
0.125 0.15625 0
0.09375 0.1875 0
0.125 0.1875 0
0 0.1875 0
0.03125 0.1875 0
0 0.21875 0
0.03125 0.21875 0
0.03125 0.1875 0
0.0625 0.1875 0
0.03125 0.21875 0
0.0625 0.21875 0
0 0.21875 0
0.03125 0.21875 0
0 0.25 0
0.03125 0.25 0
0.03125 0.21875 0
0.0625 0.21875 0
0.03125 0.25 0
0.0625 0.25 0
0.0625 0.1875 0
0.09375 0.1875 0
0.0625 0.21875 0
0.09375 0.21875 0
0.09375 0.1875 0
0.125 0.1875 0
0.09375 0.21875 0
0.125 0.21875 0
0.0625 0.21875 0
0.09375 0.21875 0
0.0625 0.25 0
0.09375 0.25 0
0.09375 0.21875 0
0.125 0.21875 0
0.09375 0.25 0
0.125 0.25 0
0.125 0.125 0
0.15625 0.125 0
0.125 0.15625 0
0.15625 0.15625 0
0.15625 0.125 0
0.1875 0.125 0
0.15625 0.15625 0
0.1875 0.15625 0
0.125 0.15625 0
0.15625 0.15625 0
0.125 0.1875 0
0.15625 0.1875 0
0.15625 0.15625 0
0.1875 0.15625 0
0.15625 0.1875 0
0.1875 0.1875 0
0.1875 0.125 0
0.21875 0.125 0
0.1875 0.15625 0
0.21875 0.15625 0
0.21875 0.125 0
0.25 0.125 0
0.21875 0.15625 0
0.25 0.15625 0
0.1875 0.15625 0
0.21875 0.15625 0
0.1875 0.1875 0
0.21875 0.1875 0
0.21875 0.15625 0
0.25 0.15625 0
0.21875 0.1875 0
0.25 0.1875 0
0.125 0.1875 0
0.15625 0.1875 0
0.125 0.21875 0
0.15625 0.21875 0
0.15625 0.1875 0
0.1875 0.1875 0
0.15625 0.21875 0
0.1875 0.21875 0
0.125 0.21875 0
0.15625 0.21875 0
0.125 0.25 0
0.15625 0.25 0
0.15625 0.21875 0
0.1875 0.21875 0
0.15625 0.25 0
0.1875 0.25 0
0.1875 0.1875 0
0.21875 0.1875 0
0.1875 0.21875 0
0.21875 0.21875 0
0.21875 0.1875 0
0.25 0.1875 0
0.21875 0.21875 0
0.25 0.21875 0
0.1875 0.21875 0
0.21875 0.21875 0
0.1875 0.25 0
0.21875 0.25 0
0.21875 0.21875 0
0.25 0.21875 0
0.21875 0.25 0
0.25 0.25 0
0.25 0 0
0.28125 0 0
0.25 0.03125 0
0.28125 0.03125 0
0.28125 0 0
0.3125 0 0
0.28125 0.03125 0
0.3125 0.03125 0
0.25 0.03125 0
0.28125 0.03125 0
0.25 0.0625 0
0.28125 0.0625 0
0.28125 0.03125 0
0.3125 0.03125 0
0.28125 0.0625 0
0.3125 0.0625 0
0.3125 0 0
0.34375 0 0
0.3125 0.03125 0
0.34375 0.03125 0
0.34375 0 0
0.375 0 0
0.34375 0.03125 0
0.375 0.03125 0
0.3125 0.03125 0
0.34375 0.03125 0
0.3125 0.0625 0
0.34375 0.0625 0
0.34375 0.03125 0
0.375 0.03125 0
0.34375 0.0625 0
0.375 0.0625 0
0.25 0.0625 0
0.28125 0.0625 0
0.25 0.09375 0
0.28125 0.09375 0
0.28125 0.0625 0
0.3125 0.0625 0
0.28125 0.09375 0
0.3125 0.09375 0
0.25 0.09375 0
0.28125 0.09375 0
0.25 0.125 0
0.28125 0.125 0
0.28125 0.09375 0
0.3125 0.09375 0
0.28125 0.125 0
0.3125 0.125 0
0.3125 0.0625 0
0.34375 0.0625 0
0.3125 0.09375 0
0.34375 0.09375 0
0.34375 0.0625 0
0.375 0.0625 0
0.34375 0.09375 0
0.375 0.09375 0
0.3125 0.09375 0
0.34375 0.09375 0
0.3125 0.125 0
0.34375 0.125 0
0.34375 0.09375 0
0.375 0.09375 0
0.34375 0.125 0
0.375 0.125 0
0.375 0 0
0.40625 0 0
0.375 0.03125 0
0.40625 0.03125 0
0.40625 0 0
0.4375 0 0
0.40625 0.03125 0
0.4375 0.03125 0
0.375 0.03125 0
0.40625 0.03125 0
0.375 0.0625 0
0.40625 0.0625 0
0.40625 0.03125 0
0.4375 0.03125 0
0.40625 0.0625 0
0.4375 0.0625 0
0.4375 0 0
0.46875 0 0
0.4375 0.03125 0
0.46875 0.03125 0
0.46875 0 0
0.5 0 0
0.46875 0.03125 0
0.5 0.03125 0
0.4375 0.03125 0
0.46875 0.03125 0
0.4375 0.0625 0
0.46875 0.0625 0
0.46875 0.03125 0
0.5 0.03125 0
0.46875 0.0625 0
0.5 0.0625 0
0.375 0.0625 0
0.40625 0.0625 0
0.375 0.09375 0
0.40625 0.09375 0
0.40625 0.0625 0
0.4375 0.0625 0
0.40625 0.09375 0
0.4375 0.09375 0
0.375 0.09375 0
0.40625 0.09375 0
0.375 0.125 0
0.40625 0.125 0
0.40625 0.09375 0
0.4375 0.09375 0
0.40625 0.125 0
0.4375 0.125 0
0.4375 0.0625 0
0.46875 0.0625 0
0.4375 0.09375 0
0.46875 0.09375 0
0.46875 0.0625 0
0.5 0.0625 0
0.46875 0.09375 0
0.5 0.09375 0
0.4375 0.09375 0
0.46875 0.09375 0
0.4375 0.125 0
0.46875 0.125 0
0.46875 0.09375 0
0.5 0.09375 0
0.46875 0.125 0
0.5 0.125 0
0.25 0.125 0
0.28125 0.125 0
0.25 0.15625 0
0.28125 0.15625 0
0.28125 0.125 0
0.3125 0.125 0
0.28125 0.15625 0
0.3125 0.15625 0
0.25 0.15625 0
0.28125 0.15625 0
0.25 0.1875 0
0.28125 0.1875 0
0.28125 0.15625 0
0.3125 0.15625 0
0.28125 0.1875 0
0.3125 0.1875 0
0.3125 0.125 0
0.34375 0.125 0
0.3125 0.15625 0
0.34375 0.15625 0
0.34375 0.125 0
0.375 0.125 0
0.34375 0.15625 0
0.375 0.15625 0
0.3125 0.15625 0
0.34375 0.15625 0
0.3125 0.1875 0
0.34375 0.1875 0
0.34375 0.15625 0
0.375 0.15625 0
0.34375 0.1875 0
0.375 0.1875 0
0.25 0.1875 0
0.28125 0.1875 0
0.25 0.21875 0
0.28125 0.21875 0
0.28125 0.1875 0
0.3125 0.1875 0
0.28125 0.21875 0
0.3125 0.21875 0
0.25 0.21875 0
0.28125 0.21875 0
0.25 0.25 0
0.28125 0.25 0
0.28125 0.21875 0
0.3125 0.21875 0
0.28125 0.25 0
0.3125 0.25 0
0.3125 0.1875 0
0.34375 0.1875 0
0.3125 0.21875 0
0.34375 0.21875 0
0.34375 0.1875 0
0.375 0.1875 0
0.34375 0.21875 0
0.375 0.21875 0
0.3125 0.21875 0
0.34375 0.21875 0
0.3125 0.25 0
0.34375 0.25 0
0.34375 0.21875 0
0.375 0.21875 0
0.34375 0.25 0
0.375 0.25 0
0.375 0.125 0
0.40625 0.125 0
0.375 0.15625 0
0.40625 0.15625 0
0.40625 0.125 0
0.4375 0.125 0
0.40625 0.15625 0
0.4375 0.15625 0
0.375 0.15625 0
0.40625 0.15625 0
0.375 0.1875 0
0.40625 0.1875 0
0.40625 0.15625 0
0.4375 0.15625 0
0.40625 0.1875 0
0.4375 0.1875 0
0.4375 0.125 0
0.46875 0.125 0
0.4375 0.15625 0
0.46875 0.15625 0
0.46875 0.125 0
0.5 0.125 0
0.46875 0.15625 0
0.5 0.15625 0
0.4375 0.15625 0
0.46875 0.15625 0
0.4375 0.1875 0
0.46875 0.1875 0
0.46875 0.15625 0
0.5 0.15625 0
0.46875 0.1875 0
0.5 0.1875 0
0.375 0.1875 0
0.40625 0.1875 0
0.375 0.21875 0
0.40625 0.21875 0
0.40625 0.1875 0
0.4375 0.1875 0
0.40625 0.21875 0
0.4375 0.21875 0
0.375 0.21875 0
0.40625 0.21875 0
0.375 0.25 0
0.40625 0.25 0
0.40625 0.21875 0
0.4375 0.21875 0
0.40625 0.25 0
0.4375 0.25 0
0.4375 0.1875 0
0.46875 0.1875 0
0.4375 0.21875 0
0.46875 0.21875 0
0.46875 0.1875 0
0.5 0.1875 0
0.46875 0.21875 0
0.5 0.21875 0
0.4375 0.21875 0
0.46875 0.21875 0
0.4375 0.25 0
0.46875 0.25 0
0.46875 0.21875 0
0.5 0.21875 0
0.46875 0.25 0
0.5 0.25 0
0 0.25 0
0.03125 0.25 0
0 0.28125 0
0.03125 0.28125 0
0.03125 0.25 0
0.0625 0.25 0
0.03125 0.28125 0
0.0625 0.28125 0
0 0.28125 0
0.03125 0.28125 0
0 0.3125 0
0.03125 0.3125 0
0.03125 0.28125 0
0.0625 0.28125 0
0.03125 0.3125 0
0.0625 0.3125 0
0.0625 0.25 0
0.09375 0.25 0
0.0625 0.28125 0
0.09375 0.28125 0
0.09375 0.25 0
0.125 0.25 0
0.09375 0.28125 0
0.125 0.28125 0
0.0625 0.28125 0
0.09375 0.28125 0
0.0625 0.3125 0
0.09375 0.3125 0
0.09375 0.28125 0
0.125 0.28125 0
0.09375 0.3125 0
0.125 0.3125 0
0 0.3125 0
0.03125 0.3125 0
0 0.34375 0
0.03125 0.34375 0
0.03125 0.3125 0
0.0625 0.3125 0
0.03125 0.34375 0
0.0625 0.34375 0
0 0.34375 0
0.03125 0.34375 0
0 0.375 0
0.03125 0.375 0
0.03125 0.34375 0
0.0625 0.34375 0
0.03125 0.375 0
0.0625 0.375 0
0.0625 0.3125 0
0.09375 0.3125 0
0.0625 0.34375 0
0.09375 0.34375 0
0.09375 0.3125 0
0.125 0.3125 0
0.09375 0.34375 0
0.125 0.34375 0
0.0625 0.34375 0
0.09375 0.34375 0
0.0625 0.375 0
0.09375 0.375 0
0.09375 0.34375 0
0.125 0.34375 0
0.09375 0.375 0
0.125 0.375 0
0.125 0.25 0
0.15625 0.25 0
0.125 0.28125 0
0.15625 0.28125 0
0.15625 0.25 0
0.1875 0.25 0
0.15625 0.28125 0
0.1875 0.28125 0
0.125 0.28125 0
0.15625 0.28125 0
0.125 0.3125 0
0.15625 0.3125 0
0.15625 0.28125 0
0.1875 0.28125 0
0.15625 0.3125 0
0.1875 0.3125 0
0.1875 0.25 0
0.21875 0.25 0
0.1875 0.28125 0
0.21875 0.28125 0
0.21875 0.25 0
0.25 0.25 0
0.21875 0.28125 0
0.25 0.28125 0
0.1875 0.28125 0
0.21875 0.28125 0
0.1875 0.3125 0
0.21875 0.3125 0
0.21875 0.28125 0
0.25 0.28125 0
0.21875 0.3125 0
0.25 0.3125 0
0.125 0.3125 0
0.15625 0.3125 0
0.125 0.34375 0
0.15625 0.34375 0
0.15625 0.3125 0
0.1875 0.3125 0
0.15625 0.34375 0
0.1875 0.34375 0
0.125 0.34375 0
[...]
POINT_DATA 4096
SCALARS u_x double 1
LOOKUP_TABLE default
2.37751e-05 1.50933e-05 -1.23378e-05 -3.406e-05 1.50933e-05 2.39305e-05 -3.406e-05 -0.000328375 -1.23378e-05 -3.406e-05 -0.000134036 -0.000192561 -3.406e-05 -0.000328375 -0.000192561 -0.000899611 2.39305e-05 2.28218e-05 -0.000328375 -0.000908396 2.28218e-05 1.51281e-05 -0.000908396 -0.00174675 -0.000328375 -0.000908396 -0.000899611 -0.00204721 -0.000908396 -0.00174675 -0.00204721 -0.00359929 -0.000134036 -0.000192561 -0.000278456 -0.000353263 -0.000192561 -0.000899611 -0.000353263 -0.00148177 -0.000278456 -0.000353263 -0.000397331 -0.000490975 -0.000353263 -0.00148177 -0.000490975 -0.00199644 -0.000899611 -0.00204721 -0.00148177 -0.00316553 -0.00204721 -0.00359929 -0.00316553 -0.00534809 -0.00148177 -0.00316553 -0.00199644 -0.00416449 -0.00316553 -0.00534809 -0.00416449 -0.00690591 1.51281e-05 4.31417e-06 -0.00174675 -0.00276928 4.31417e-06 -7.66101e-06 -0.00276928 -0.00390358 -0.00174675 -0.00276928 -0.00359929 -0.00544366 -0.00276928 -0.00390358 -0.00544366 -0.0074702 -7.66101e-06 -1.97837e-05 -0.00390358 -0.00508677 -1.97837e-05 -3.15211e-05 -0.00508677 -0.006268 -0.00390358 -0.00508677 -0.0074702 -0.00957732 -0.00508677 -0.006268 -0.00957732 -0.0116792 -0.00359929 -0.00544366 -0.00534809 -0.00788308 -0.00544366 -0.0074702 -0.00788308 -0.0106368 -0.00534809 -0.00788308 -0.00690591 -0.0100375 -0.00788308 -0.0106368 -0.0100375 -0.0134047 -0.0074702 -0.00957732 -0.0106368 -0.0134837 -0.00957732 -0.0116792 -0.0134837 -0.0163152 -0.0106368 -0.0134837 -0.0134047 -0.0168642 -0.0134837 -0.0163152 -0.0168642 -0.0202924 -0.000397331 -0.000490975 -0.000463816 -0.000608038 -0.000490975 -0.00199644 -0.000608038 -0.00243209 -0.000463816 -0.000608038 -0.000462832 -0.000713 -0.000608038 -0.00243209 -0.000713 -0.00280255 -0.00199644 -0.00416449 -0.00243209 -0.00502803 -0.00416449 -0.00690591 -0.00502803 -0.00826483 -0.00243209 -0.00502803 -0.00280255 -0.0057787 -0.00502803 -0.00826483 -0.0057787 -0.00945971 -0.000462832 -0.000713 -0.000385052 -0.000814605 -0.000713 -0.00280255 -0.000814605 -0.00312852 -0.000385052 -0.000814605 -0.000223889 -0.000920624 -0.000814605 -0.00312852 -0.000920624 -0.00343107 -0.00280255 -0.0057787 -0.00312852 -0.00645278 -0.0057787 -0.00945971 -0.00645278 -0.0105433 -0.00312852 -0.00645278 -0.00343107 -0.007089 -0.00645278 -0.0105433 -0.007089 -0.0115725 -0.00690591 -0.0100375 -0.00826483 -0.0119225 -0.0100375 -0.0134047 -0.0119225 -0.0158242 -0.00826483 -0.0119225 -0.00945971 -0.0135921 -0.0119225 -0.0158242 -0.0135921 -0.0179758 -0.0134047 -0.0168642 -0.0158242 -0.0198114 -0.0168642 -0.0202924 -0.0198114 -0.0237483 -0.0158242 -0.0198114 -0.0179758 -0.0224368 -0.0198114 -0.0237483 -0.0224368 -0.0268288 -0.00945971 -0.0135921 -0.0105433 -0.0151182 -0.0135921 -0.0179758 -0.0151182 -0.0199536 -0.0105433 -0.0151182 -0.0115725 -0.0165767 -0.0151182 -0.0199536 -0.0165767 -0.021853 -0.0179758 -0.0224368 -0.0199536 -0.0248597 -0.0224368 -0.0268288 -0.0248597 -0.0296804 -0.0199536 -0.0248597 -0.021853 -0.0271964 -0.0248597 -0.0296804 -0.0271964 -0.0324409 -3.15211e-05 -4.26059e-05 -0.006268 -0.00740724 -4.26059e-05 -5.28999e-05 -0.00740724 -0.00847305 -0.006268 -0.00740724 -0.0116792 -0.0137059 -0.00740724 -0.00847305 -0.0137059 -0.0156008 -5.28999e-05 -6.23129e-05 -0.00847305 -0.00944023 -6.23129e-05 -7.07595e-05 -0.00944023 -0.0102878 -0.00847305 -0.00944023 -0.0156008 -0.0173181 -0.00944023 -0.0102878 -0.0173181 -0.0188196 -0.0116792 -0.0137059 -0.0163152 -0.0190409 -0.0137059 -0.0156008 -0.0190409 -0.0215861 -0.0163152 -0.0190409 -0.0202924 -0.0235848 -0.0190409 -0.0215861 -0.0235848 -0.0266546 -0.0156008 -0.0173181 -0.0215861 -0.0238894 -0.0173181 -0.0188196 -0.0238894 -0.0258993 -0.0215861 -0.0238894 -0.0266546 -0.0294292 -0.0238894 -0.0258993 -0.0294292 -0.0318478 -7.07595e-05 -7.81308e-05 -0.0102878 -0.0109977 -7.81308e-05 -8.42785e-05 -0.0109977 -0.0115535 -0.0102878 -0.0109977 -0.0188196 -0.0200723 -0.0109977 -0.0115535 -0.0200723 -0.0210474 -8.42785e-05 -8.90167e-05 -0.0115535 -0.0119405 -8.90167e-05 -9.21344e-05 -0.0119405 -0.0121455 -0.0115535 -0.0119405 -0.0210474 -0.0217192 -0.0119405 -0.0121455 -0.0217192 -0.0220655 -0.0188196 -0.0200723 -0.0258993 -0.0275717 -0.0200723 -0.0210474 -0.0275717 -0.0288681 -0.0258993 -0.0275717 -0.0318478 -0.0338578 -0.0275717 -0.0288681 -0.0338578 -0.0354134 -0.0210474 -0.0217192 -0.0288681 -0.0297549 -0.0217192 -0.0220655 -0.0297549 -0.0302032 -0.0288681 -0.0297549 -0.0354134 -0.0364748 -0.0297549 -0.0302032 -0.0364748 -0.037008 -0.0202924 -0.0235848 -0.0237483 -0.0275208 -0.0235848 -0.0266546 -0.0275208 -0.0310336 -0.0237483 -0.0275208 -0.0268288 -0.0310303 -0.0275208 -0.0310336 -0.0310303 -0.03494 -0.0266546 -0.0294292 -0.0310336 -0.034207 -0.0294292 -0.0318478 -0.034207 -0.0369732 -0.0310336 -0.034207 -0.03494 -0.0384731 -0.034207 -0.0369732 -0.0384731 -0.0415574 -0.0268288 -0.0310303 -0.0296804 -0.0342876 -0.0310303 -0.03494 -0.0342876 -0.0385758 -0.0296804 -0.0342876 -0.0324409 -0.0374525 -0.0342876 -0.0385758 -0.0374525 -0.0421224 -0.03494 -0.0384731 -0.0385758 -0.0424568 -0.0384731 -0.0415574 -0.0424568 -0.0458551 -0.0385758 -0.0424568 -0.0421224 -0.0463604 -0.0424568 -0.0458551 -0.0463604 -0.0500888 -0.0318478 -0.0338578 -0.0369732 -0.0392735 -0.0338578 -0.0354134 -0.0392735 -0.0410567 -0.0369732 -0.0392735 -0.0415574 -0.0441297 -0.0392735 -0.0410567 -0.0441297 -0.0461338 -0.0354134 -0.0364748 -0.0410567 -0.0422774 -0.0364748 -0.037008 -0.0422774 -0.0428969 -0.0410567 -0.0422774 -0.0461338 -0.0475194 -0.0422774 -0.0428969 -0.0475194 -0.0482423 -0.0415574 -0.0441297 -0.0458551 -0.0487042 -0.0441297 -0.0461338 -0.0487042 -0.0509434 -0.0458551 -0.0487042 -0.0500888 -0.0532383 -0.0487042 -0.0509434 -0.0532383 -0.0557444 -0.0461338 -0.0475194 -0.0509434 -0.0525174 -0.0475194 -0.0482423 -0.0525174 -0.0533754 -0.0509434 -0.0525174 -0.0557444 -0.0575458 -0.0525174 -0.0533754 -0.0575458 -0.0585843 -0.000223889 -0.000920624 2.62326e-05 -0.00103768 -0.000920624 -0.00343107 -0.00103768 -0.00372915 2.62326e-05 -0.00103768 0.000370964 -0.00117139 -0.00103768 -0.00372915 -0.00117139 -0.00403897 -0.00343107 -0.007089 -0.00372915 -0.00772336 -0.007089 -0.0115725 -0.00772336 -0.0126011 -0.00372915 -0.00772336 -0.00403897 -0.00838738 -0.00772336 -0.0126011 -0.00838738 -0.0136766 0.000370964 -0.00117139 0.000816681 -0.00132663 -0.00117139 -0.00403897 -0.00132663 -0.00437418 0.000816681 -0.00132663 0.00137095 -0.00150785 -0.00132663 -0.00437418 -0.00150785 -0.00474655 -0.00403897 -0.00838738 -0.00437418 -0.00910805 -0.00838738 -0.0136766 -0.00910805 -0.01484 -0.00437418 -0.00910805 -0.00474655 -0.00990879 -0.00910805 -0.01484 -0.00990879 -0.0161265 -0.0115725 -0.0165767 -0.0126011 -0.0180389 -0.0165767 -0.021853 -0.0180389 -0.0237631 -0.0126011 -0.0180389 -0.0136766 -0.0195682 -0.0180389 -0.0237631 -0.0195682 -0.0257619 -0.021853 -0.0271964 -0.0237631 -0.0295531 -0.0271964 -0.0324409 -0.0295531 -0.0352333 -0.0237631 -0.0295531 -0.0257619 -0.0320215 -0.0295531 -0.0352333 -0.0320215 -0.0381621 -0.0136766 -0.0195682 -0.01484 -0.0212189 -0.0195682 -0.0257619 -0.0212189 -0.0279154 -0.01484 -0.0212189 -0.0161265 -0.0230369 -0.0212189 -0.0279154 -0.0230369 -0.0302787 -0.0257619 -0.0320215 -0.0279154 -0.0346779 -0.0320215 -0.0381621 -0.0346779 -0.0413123 -0.0279154 -0.0346779 -0.0302787 -0.037584 -0.0346779 -0.0413123 -0.037584 -0.0447501 0.00137095 -0.00150785 0.00204279 -0.00171947 -0.00150785 -0.00474655 -0.00171947 -0.00516692 0.00204279 -0.00171947 0.00284296 -0.00196626 -0.00171947 -0.00516692 -0.00196626 -0.00564627 -0.00474655 -0.00990879 -0.00516692 -0.010811 -0.00990879 -0.0161265 -0.010811 -0.0175677 -0.00516692 -0.010811 -0.00564627 -0.0118359 -0.010811 -0.0175677 -0.0118359 -0.0191941 0.00284296 -0.00196626 0.00378431 -0.0022538 -0.00196626 -0.00564627 -0.0022538 -0.00619706 0.00378431 -0.0022538 0.0048823 -0.00258909 -0.0022538 -0.00619706 -0.00258909 -0.0068346 -0.00564627 -0.0118359 -0.00619706 -0.013007 -0.0118359 -0.0191941 -0.013007 -0.0210374 -0.00619706 -0.013007 -0.0068346 -0.014352 -0.013007 -0.0210374 -0.014352 -0.0231339 -0.0161265 -0.0230369 -0.0175677 -0.0250624 -0.0230369 -0.0302787 -0.0250624 -0.0328978 -0.0175677 -0.0250624 -0.0191941 -0.0273324 -0.0250624 -0.0328978 -0.0273324 -0.0358124 -0.0302787 -0.037584 -0.0328978 -0.0407887 -0.037584 -0.0447501 -0.0407887 -0.0485248 -0.0328978 -0.0407887 -0.0358124 -0.0443309 -0.0407887 -0.0485248 -0.0443309 -0.0526707 -0.0191941 -0.0273324 -0.0210374 -0.0298833 -0.0273324 -0.0358124 -0.0298833 -0.0390587 -0.0210374 -0.0298833 -0.0231339 -0.0327538 -0.0298833 -0.0390587 -0.0327538 -0.0426704 -0.0358124 -0.0443309 -0.0390587 -0.048241 -0.0443309 -0.0526707 -0.048241 -0.0572076 -0.0390587 -0.048241 -0.0426704 -0.0525409 -0.048241 -0.0572076 -0.0525409 -0.0621393 -0.0324409 -0.0374525 -0.0352333 -0.0406645 -0.0374525 -0.0421224 -0.0406645 -0.0457357 -0.0352333 -0.0406645 -0.0381621 -0.0440401 -0.0406645 -0.0457357 -0.0440401 -0.0495433 -0.0421224 -0.0463604 -0.0457357 -0.0503555 -0.0463604 -0.0500888 -0.0503555 -0.0544453 -0.0457357 -0.0503555 -0.0495433 -0.0545808 -0.0503555 -0.0544453 -0.0545808 -0.0590744 -0.0381621 -0.0440401 -0.0413123 -0.0476717 -0.0440401 -0.0495433 -0.0476717 -0.0536445 -0.0413123 -0.0476717 -0.0447501 -0.0516285 -0.0476717 -0.0536445 -0.0516285 -0.0581102 -0.0495433 -0.0545808 -0.0536445 -0.0591418 -0.0545808 -0.0590744 -0.0591418 -0.064088 -0.0536445 -0.0591418 -0.0581102 -0.064111 -0.0591418 -0.064088 -0.064111 -0.0695606 -0.0500888 -0.0532383 -0.0544453 -0.0579339 -0.0532383 -0.0557444 -0.0579339 -0.060753 -0.0544453 -0.0579339 -0.0590744 -0.0629519 -0.0579339 -0.060753 -0.0629519 -0.0661424 -0.0557444 -0.0575458 -0.060753 -0.0628353 -0.0575458 -0.0585843 -0.0628353 -0.0641136 -0.060753 -0.0628353 -0.0661424 -0.0685721 -0.0628353 -0.0641136 -0.0685721 -0.070164 -0.0590744 -0.0629519 -0.064088 -0.0684121 -0.0629519 -0.0661424 -0.0684121 -0.0720414 -0.064088 -0.0684121 -0.0695606 -0.074392 -0.0684121 -0.0720414 -0.074392 -0.0785336 -0.0661424 -0.0685721 -0.0720414 -0.0748971 -0.0685721 -0.070164 -0.0748971 -0.0768914 -0.0720414 -0.0748971 -0.0785336 -0.0819031 -0.0748971 -0.0768914 -0.0819031 -0.0844034 -0.0447501 -0.0516285 -0.0485248 -0.0559579 -0.0516285 -0.0581102 -0.0559579 -0.0629842 -0.0485248 -0.0559579 -0.0526707 -0.0606864 -0.0559579 -0.0629842 -0.0606864 -0.0682831 -0.0581102 -0.064111 -0.0629842 -0.0695279 -0.064111 -0.0695606 -0.0695279 -0.0755276 -0.0629842 -0.0695279 -0.0682831 -0.0753976 -0.0695279 -0.0755276 -0.0753976 -0.0819823 -0.0526707 -0.0606864 -0.0572076 -0.0658191 -0.0606864 -0.0682831 -0.0658191 -0.073994 -0.0572076 -0.0658191 -0.0621393 -0.0713363 -0.0658191 -0.073994 -0.0713363 -0.0800683 -0.0682831 -0.0753976 -0.073994 -0.0816864 -0.0753976 -0.0819823 -0.0816864 -0.0888686 -0.073994 -0.0816864 -0.0800683 -0.0883131 -0.0816864 -0.0888686 -0.0883131 -0.096069 -0.0695606 -0.074392 -0.0755276 -0.0809244 -0.074392 -0.0785336 -0.0809244 -0.0856519 -0.0755276 -0.0809244 -0.0819823 -0.0879917 -0.0809244 -0.0856519 -0.0879917 -0.0933702 -0.0785336 -0.0819031 -0.0856519 -0.0896281 -0.0819031 -0.0844034 -0.0896281 -0.0927491 -0.0856519 -0.0896281 -0.0933702 -0.0980422 -0.0896281 -0.0927491 -0.0980422 -0.101902 -0.0819823 -0.0879917 -0.0888686 -0.0955149 -0.0879917 -0.0933702 -0.0955149 -0.101588 -0.0888686 -0.0955149 -0.096069 -0.103337 -0.0955149 -0.101588 -0.103337 -0.110108 -0.0933702 -0.0980422 -0.101588 -0.107026 -0.0980422 -0.101902 -0.107026 -0.111731 -0.101588 -0.107026 -0.110108 -0.116343 -0.107026 -0.111731 -0.116343 -0.121961 -9.21344e-05 -9.3412e-05 -0.0121455 -0.0121576 -9.3412e-05 -9.2641e-05 -0.0121576 -0.0119686 -0.0121455 -0.0121576 -0.0220655 -0.0220683 -0.0121576 -0.0119686 -0.0220683 -0.0217152 -9.2641e-05 -8.96442e-05 -0.0119686 -0.0115744 -8.96442e-05 -8.42953e-05 -0.0115744 -0.0109765 -0.0119686 -0.0115744 -0.0217152 -0.021001 -0.0115744 -0.0109765 -0.021001 -0.0199296 -0.0220655 -0.0220683 -0.0302032 -0.0301904 -0.0220683 -0.0217152 -0.0301904 -0.0297012 -0.0302032 -0.0301904 -0.037008 -0.0369862 -0.0301904 -0.0297012 -0.0369862 -0.0363915 -0.0217152 -0.021001 -0.0297012 -0.0287301 -0.021001 -0.0199296 -0.0287301 -0.027284 -0.0297012 -0.0287301 -0.0363915 -0.0352176 -0.0287301 -0.027284 -0.0352176 -0.0334727 -8.42953e-05 -7.65479e-05 -0.0109765 -0.0101827 -7.65479e-05 -6.64697e-05 -0.0101827 -0.00920927 -0.0109765 -0.0101827 -0.0199296 -0.018517 -0.0101827 -0.00920927 -0.018517 -0.0167929 -6.64697e-05 -5.42694e-05 -0.00920927 -0.00808198 -5.42694e-05 -4.03251e-05 -0.00808198 -0.00683739 -0.00920927 -0.00808198 -0.0167929 -0.0148033 -0.00808198 -0.00683739 -0.0148033 -0.0126121 -0.0199296 -0.018517 -0.027284 -0.025385 -0.018517 -0.0167929 -0.025385 -0.0230735 -0.027284 -0.025385 -0.0334727 -0.0311835 -0.025385 -0.0230735 -0.0311835 -0.0283976 -0.0167929 -0.0148033 -0.0230735 -0.0204107 -0.0148033 -0.0126121 -0.0204107 -0.0174804 -0.0230735 -0.0204107 -0.0283976 -0.0251876 -0.0204107 -0.0174804 -0.0251876 -0.0216521 -0.037008 -0.0369862 -0.0428969 -0.0428838 -0.0369862 -0.0363915 -0.0428838 -0.0422166 -0.0428969 -0.0428838 -0.0482423 -0.0482657 -0.0428838 -0.0422166 -0.0482657 -0.0475627 -0.0363915 -0.0352176 -0.0422166 -0.0408867 -0.0352176 -0.0334727 -0.0408867 -0.0389017 -0.0422166 -0.0408867 -0.0475627 -0.0461197 -0.0408867 -0.0389017 -0.0461197 -0.0439409 -0.0482423 -0.0482657 -0.0533754 -0.0534734 -0.0482657 -0.0475627 -0.0534734 -0.0527765 -0.0533754 -0.0534734 -0.0585843 -0.0588063 -0.0534734 -0.0527765 -0.0588063 -0.0581657 -0.0475627 -0.0461197 -0.0527765 -0.0512631 -0.0461197 -0.0439409 -0.0512631 -0.0489307 -0.0527765 -0.0512631 -0.0581657 -0.0566293 -0.0512631 -0.0489307 -0.0566293 -0.054183 -0.0334727 -0.0311835 -0.0389017 -0.0362897 -0.0311835 -0.0283976 -0.0362897 -0.0331034 -0.0389017 -0.0362897 -0.0439409 -0.0410533 -0.0362897 -0.0331034 -0.0410533 -0.0375115 -0.0283976 -0.0251876 -0.0331034 -0.0294233 -0.0251876 -0.0216521 -0.0294233 -0.0253599 -0.0331034 -0.0294233 -0.0375115 -0.0334019 -0.0294233 -0.0253599 -0.0334019 -0.0288454 -0.0439409 -0.0410533 -0.0489307 -0.0458014 -0.0410533 -0.0375115 -0.0458014 -0.0419287 -0.0489307 -0.0458014 -0.054183 -0.0508401 -0.0458014 -0.0419287 -0.0508401 -0.046649 -0.0375115 -0.0334019 -0.0419287 -0.037403 -0.0334019 -0.0288454 -0.037403 -0.0323552 -0.0419287 -0.037403 -0.046649 -0.0417017 -0.037403 -0.0323552 -0.0417017 -0.0361387 -4.03251e-05 -2.51981e-05 -0.00683739 -0.0055237 -2.51981e-05 -9.74209e-06 -0.0055237 -0.0042005 -0.00683739 -0.0055237 -0.0126121 -0.010302 -0.0055237 -0.0042005 -0.010302 -0.00797371 -9.74209e-06 5.193e-06 -0.0042005 -0.00294012 5.193e-06 1.68781e-05 -0.00294012 -0.00181351 -0.0042005 -0.00294012 -0.00797371 -0.00574537 -0.00294012 -0.00181351 -0.00574537 -0.00373438 -0.0126121 -0.010302 -0.0174804 -0.0143897 -0.010302 -0.00797371 -0.0143897 -0.0112674 -0.0174804 -0.0143897 -0.0216521 -0.0179164 -0.0143897 -0.0112674 -0.0179164 -0.01413 -0.00797371 -0.00574537 -0.0112674 -0.0082615 -0.00574537 -0.00373438 -0.0082615 -0.00551986 -0.0112674 -0.0082615 -0.01413 -0.010464 -0.0082615 -0.00551986 -0.010464 -0.00709023 1.68781e-05 2.48111e-05 -0.00181351 -0.000946453 2.48111e-05 5.21248e-05 -0.000946453 -0.000151283 -0.00181351 -0.000946453 -0.00373438 -0.00211659 -0.000946453 -0.000151283 -0.00211659 -0.000712137 5.21248e-05 -8.52689e-06 -0.000151283 -0.000806774 -8.52689e-06 0.00668755 -0.000806774 0.00593174 -0.000151283 -0.000806774 -0.000712137 -0.00100257 -0.000806774 0.00593174 -0.00100257 0.00615222 -0.00373438 -0.00211659 -0.00551986 -0.00324661 -0.00211659 -0.000712137 -0.00324661 -0.00129233 -0.00551986 -0.00324661 -0.00709023 -0.00423791 -0.00324661 -0.00129233 -0.00423791 -0.00179619 -0.000712137 -0.00100257 -0.00129233 -0.00117737 -0.00100257 0.00615222 -0.00117737 0.00597237 -0.00129233 -0.00117737 -0.00179619 -0.0013059 -0.00117737 0.00597237 -0.0013059 0.00582063 -0.0216521 -0.0179164 -0.0253599 -0.0210539 -0.0179164 -0.01413 -0.0210539 -0.0166737 -0.0253599 -0.0210539 -0.0288454 -0.023998 -0.0210539 -0.0166737 -0.023998 -0.0190481 -0.01413 -0.010464 -0.0166737 -0.0124118 -0.010464 -0.00709023 -0.0124118 -0.00846484 -0.0166737 -0.0124118 -0.0190481 -0.0142124 -0.0124118 -0.00846484 -0.0142124 -0.00971583 -0.0288454 -0.023998 -0.0323552 -0.026958 -0.023998 -0.0190481 -0.026958 -0.0214232 -0.0323552 -0.026958 -0.0361387 -0.0301518 -0.026958 -0.0214232 -0.0301518 -0.0239809 -0.0190481 -0.0142124 -0.0214232 -0.0159969 -0.0142124 -0.00971583 -0.0159969 -0.0109383 -0.0214232 -0.0159969 -0.0239809 -0.0179089 -0.0159969 -0.0109383 -0.0179089 -0.0122371 -0.00709023 -0.00423791 -0.00846484 -0.00508948 -0.00423791 -0.00179619 -0.00508948 -0.00221467 -0.00846484 -0.00508948 -0.00971583 -0.00584724 -0.00508948 -0.00221467 -0.00584724 -0.00257492 -0.00179619 -0.0013059 -0.00221467 -0.0014073 -0.0013059 0.00582063 -0.0014073 0.00571346 -0.00221467 -0.0014073 -0.00257492 -0.00149524 -0.0014073 0.00571346 -0.00149524 0.00565087 -0.00971583 -0.00584724 -0.0109383 -0.00657388 -0.00584724 -0.00257492 -0.00657388 -0.00291077 -0.0109383 -0.00657388 -0.0122371 -0.00733728 -0.00657388 -0.00291077 -0.00733728 -0.00325728 -0.00257492 -0.00149524 -0.00291077 -0.0015804 -0.00149524 0.00565087 -0.0015804 0.0056357 -0.00291077 -0.0015804 -0.00325728 -0.00167317 -0.0015804 0.0056357 -0.00167317 0.00566563 -0.0585843 -0.0588063 -0.0641136 -0.0645222 -0.0588063 -0.0581657 -0.0645222 -0.0640005 -0.0641136 -0.0645222 -0.070164 -0.0708379 -0.0645222 -0.0640005 -0.0708379 -0.0705146 -0.0581657 -0.0566293 -0.0640005 -0.0624986 -0.0566293 -0.054183 -0.0624986 -0.0599856 -0.0640005 -0.0624986 -0.0705146 -0.0691221 -0.0624986 -0.0599856 -0.0691221 -0.0666056 -0.070164 -0.0708379 -0.0768914 -0.0779282 -0.0708379 -0.0705146 -0.0779282 -0.0779053 -0.0768914 -0.0779282 -0.0844034 -0.0859209 -0.0779282 -0.0779053 -0.0859209 -0.0863277 -0.0705146 -0.0691221 -0.0779053 -0.0767224 -0.0691221 -0.0666056 -0.0767224 -0.0742919 -0.0779053 -0.0767224 -0.0863277 -0.0854881 -0.0767224 -0.0742919 -0.0854881 -0.0832715 -0.054183 -0.0508401 -0.0599856 -0.0564597 -0.0508401 -0.046649 -0.0564597 -0.0519594 -0.0599856 -0.0564597 -0.0666056 -0.0629402 -0.0564597 -0.0519594 -0.0629402 -0.0581465 -0.046649 -0.0417017 -0.0519594 -0.046574 -0.0417017 -0.0361387 -0.046574 -0.0404528 -0.0519594 -0.046574 -0.0581465 -0.0523053 -0.046574 -0.0404528 -0.0523053 -0.0455711 -0.0666056 -0.0629402 -0.0742919 -0.0705556 -0.0629402 -0.0581465 -0.0705556 -0.0655045 -0.0742919 -0.0705556 -0.0832715 -0.0795724 -0.0705556 -0.0655045 -0.0795724 -0.0743362 -0.0581465 -0.0523053 -0.0655045 -0.0592005 -0.0523053 -0.0455711 -0.0592005 -0.0517962 -0.0655045 -0.0592005 -0.0743362 -0.0675897 -0.0592005 -0.0517962 -0.0675897 -0.0594703 -0.0844034 -0.0859209 -0.0927491 -0.0948852 -0.0859209 -0.0863277 -0.0948852 -0.0958802 -0.0927491 -0.0948852 -0.101902 -0.104808 -0.0948852 -0.0958802 -0.104808 -0.106575 -0.0863277 -0.0854881 -0.0958802 -0.0955573 -0.0854881 -0.0832715 -0.0955573 -0.0937316 -0.0958802 -0.0955573 -0.106575 -0.106983 -0.0955573 -0.0937316 -0.106983 -0.105782 -0.101902 -0.104808 -0.111731 -0.115555 -0.104808 -0.106575 -0.115555 -0.118292 -0.111731 -0.115555 -0.121961 -0.126823 -0.115555 -0.118292 -0.126823 -0.130711 -0.106575 -0.106983 -0.118292 -0.119676 -0.106983 -0.105782 -0.119676 -0.119385 -0.118292 -0.119676 -0.130711 -0.13332 -0.119676 -0.119385 -0.13332 -0.134258 -0.0832715 -0.0795724 -0.0937316 -0.0902335 -0.0795724 -0.0743362 -0.0902335 -0.084941 -0.0937316 -0.0902335 -0.105782 -0.102718 -0.0902335 -0.084941 -0.102718 -0.0975749 -0.0743362 -0.0675897 -0.084941 -0.0778211 -0.0675897 -0.0594703 -0.0778211 -0.0689743 -0.084941 -0.0778211 -0.0975749 -0.0902269 -0.0778211 -0.0689743 -0.0902269 -0.0807018 -0.105782 -0.102718 -0.119385 -0.117065 -0.102718 -0.0975749 -0.117065 -0.112372 -0.119385 -0.117065 -0.134258 -0.133055 -0.117065 -0.112372 -0.133055 -0.129216 -0.0975749 -0.0902269 -0.112372 -0.105046 -0.0902269 -0.0807018 -0.105046 -0.0949924 -0.112372 -0.105046 -0