# vtk DataFile Version 3.0
#This file was generated by the deal.II library on 2026/1/5 at 14:19:33
ASCII
DATASET UNSTRUCTURED_GRID

POINTS 4096 double
0 0 0
0.03125 0 0
0 0.03125 0
0.03125 0.03125 0
0.03125 0 0
0.0625 0 0
0.03125 0.03125 0
0.0625 0.03125 0
0 0.03125 0
0.03125 0.03125 0
0 0.0625 0
0.03125 0.0625 0
0.03125 0.03125 0
0.0625 0.03125 0
0.03125 0.0625 0
0.0625 0.0625 0
0.0625 0 0
0.09375 0 0
0.0625 0.03125 0
0.09375 0.03125 0
0.09375 0 0
0.125 0 0
0.09375 0.03125 0
0.125 0.03125 0
0.0625 0.03125 0
0.09375 0.03125 0
0.0625 0.0625 0
0.09375 0.0625 0
0.09375 0.03125 0
0.125 0.03125 0
0.09375 0.0625 0
0.125 0.0625 0
0 0.0625 0
0.03125 0.0625 0
0 0.09375 0
0.03125 0.09375 0
0.03125 0.0625 0
0.0625 0.0625 0
0.03125 0.09375 0
0.0625 0.09375 0
0 0.09375 0
0.03125 0.09375 0
0 0.125 0
0.03125 0.125 0
0.03125 0.09375 0
0.0625 0.09375 0
0.03125 0.125 0
0.0625 0.125 0
0.0625 0.0625 0
0.09375 0.0625 0
0.0625 0.09375 0
0.09375 0.09375 0
0.09375 0.0625 0
0.125 0.0625 0
0.09375 0.09375 0
0.125 0.09375 0
0.0625 0.09375 0
0.09375 0.09375 0
0.0625 0.125 0
0.09375 0.125 0
0.09375 0.09375 0
0.125 0.09375 0
0.09375 0.125 0
0.125 0.125 0
0.125 0 0
0.15625 0 0
0.125 0.03125 0
0.15625 0.03125 0
0.15625 0 0
0.1875 0 0
0.15625 0.03125 0
0.1875 0.03125 0
0.125 0.03125 0
0.15625 0.03125 0
0.125 0.0625 0
0.15625 0.0625 0
0.15625 0.03125 0
0.1875 0.03125 0
0.15625 0.0625 0
0.1875 0.0625 0
0.1875 0 0
0.21875 0 0
0.1875 0.03125 0
0.21875 0.03125 0
0.21875 0 0
0.25 0 0
0.21875 0.03125 0
0.25 0.03125 0
0.1875 0.03125 0
0.21875 0.03125 0
0.1875 0.0625 0
0.21875 0.0625 0
0.21875 0.03125 0
0.25 0.03125 0
0.21875 0.0625 0
0.25 0.0625 0
0.125 0.0625 0
0.15625 0.0625 0
0.125 0.09375 0
0.15625 0.09375 0
0.15625 0.0625 0
0.1875 0.0625 0
0.15625 0.09375 0
0.1875 0.09375 0
0.125 0.09375 0
0.15625 0.09375 0
0.125 0.125 0
0.15625 0.125 0
0.15625 0.09375 0
0.1875 0.09375 0
0.15625 0.125 0
0.1875 0.125 0
0.1875 0.0625 0
0.21875 0.0625 0
0.1875 0.09375 0
0.21875 0.09375 0
0.21875 0.0625 0
0.25 0.0625 0
0.21875 0.09375 0
0.25 0.09375 0
0.1875 0.09375 0
0.21875 0.09375 0
0.1875 0.125 0
0.21875 0.125 0
0.21875 0.09375 0
0.25 0.09375 0
0.21875 0.125 0
0.25 0.125 0
0 0.125 0
0.03125 0.125 0
0 0.15625 0
0.03125 0.15625 0
0.03125 0.125 0
0.0625 0.125 0
0.03125 0.15625 0
0.0625 0.15625 0
0 0.15625 0
0.03125 0.15625 0
0 0.1875 0
0.03125 0.1875 0
0.03125 0.15625 0
0.0625 0.15625 0
0.03125 0.1875 0
0.0625 0.1875 0
0.0625 0.125 0
0.09375 0.125 0
0.0625 0.15625 0
0.09375 0.15625 0
0.09375 0.125 0
0.125 0.125 0
0.09375 0.15625 0
0.125 0.15625 0
0.0625 0.15625 0
0.09375 0.15625 0
0.0625 0.1875 0
0.09375 0.1875 0
0.09375 0.15625 0
0.125 0.15625 0
0.09375 0.1875 0
0.125 0.1875 0
0 0.1875 0
0.03125 0.1875 0
0 0.21875 0
0.03125 0.21875 0
0.03125 0.1875 0
0.0625 0.1875 0
0.03125 0.21875 0
0.0625 0.21875 0
0 0.21875 0
0.03125 0.21875 0
0 0.25 0
0.03125 0.25 0
0.03125 0.21875 0
0.0625 0.21875 0
0.03125 0.25 0
0.0625 0.25 0
0.0625 0.1875 0
0.09375 0.1875 0
0.0625 0.21875 0
0.09375 0.21875 0
0.09375 0.1875 0
0.125 0.1875 0
0.09375 0.21875 0
0.125 0.21875 0
0.0625 0.21875 0
0.09375 0.21875 0
0.0625 0.25 0
0.09375 0.25 0
0.09375 0.21875 0
0.125 0.21875 0
0.09375 0.25 0
0.125 0.25 0
0.125 0.125 0
0.15625 0.125 0
0.125 0.15625 0
0.15625 0.15625 0
0.15625 0.125 0
0.1875 0.125 0
0.15625 0.15625 0
0.1875 0.15625 0
0.125 0.15625 0
0.15625 0.15625 0
0.125 0.1875 0
0.15625 0.1875 0
0.15625 0.15625 0
0.1875 0.15625 0
0.15625 0.1875 0
0.1875 0.1875 0
0.1875 0.125 0
0.21875 0.125 0
0.1875 0.15625 0
0.21875 0.15625 0
0.21875 0.125 0
0.25 0.125 0
0.21875 0.15625 0
0.25 0.15625 0
0.1875 0.15625 0
0.21875 0.15625 0
0.1875 0.1875 0
0.21875 0.1875 0
0.21875 0.15625 0
0.25 0.15625 0
0.21875 0.1875 0
0.25 0.1875 0
0.125 0.1875 0
0.15625 0.1875 0
0.125 0.21875 0
0.15625 0.21875 0
0.15625 0.1875 0
0.1875 0.1875 0
0.15625 0.21875 0
0.1875 0.21875 0
0.125 0.21875 0
0.15625 0.21875 0
0.125 0.25 0
0.15625 0.25 0
0.15625 0.21875 0
0.1875 0.21875 0
0.15625 0.25 0
0.1875 0.25 0
0.1875 0.1875 0
0.21875 0.1875 0
0.1875 0.21875 0
0.21875 0.21875 0
0.21875 0.1875 0
0.25 0.1875 0
0.21875 0.21875 0
0.25 0.21875 0
0.1875 0.21875 0
0.21875 0.21875 0
0.1875 0.25 0
0.21875 0.25 0
0.21875 0.21875 0
0.25 0.21875 0
0.21875 0.25 0
0.25 0.25 0
0.25 0 0
0.28125 0 0
0.25 0.03125 0
0.28125 0.03125 0
0.28125 0 0
0.3125 0 0
0.28125 0.03125 0
0.3125 0.03125 0
0.25 0.03125 0
0.28125 0.03125 0
0.25 0.0625 0
0.28125 0.0625 0
0.28125 0.03125 0
0.3125 0.03125 0
0.28125 0.0625 0
0.3125 0.0625 0
0.3125 0 0
0.34375 0 0
0.3125 0.03125 0
0.34375 0.03125 0
0.34375 0 0
0.375 0 0
0.34375 0.03125 0
0.375 0.03125 0
0.3125 0.03125 0
0.34375 0.03125 0
0.3125 0.0625 0
0.34375 0.0625 0
0.34375 0.03125 0
0.375 0.03125 0
0.34375 0.0625 0
0.375 0.0625 0
0.25 0.0625 0
0.28125 0.0625 0
0.25 0.09375 0
0.28125 0.09375 0
0.28125 0.0625 0
0.3125 0.0625 0
0.28125 0.09375 0
0.3125 0.09375 0
0.25 0.09375 0
0.28125 0.09375 0
0.25 0.125 0
0.28125 0.125 0
0.28125 0.09375 0
0.3125 0.09375 0
0.28125 0.125 0
0.3125 0.125 0
0.3125 0.0625 0
0.34375 0.0625 0
0.3125 0.09375 0
0.34375 0.09375 0
0.34375 0.0625 0
0.375 0.0625 0
0.34375 0.09375 0
0.375 0.09375 0
0.3125 0.09375 0
0.34375 0.09375 0
0.3125 0.125 0
0.34375 0.125 0
0.34375 0.09375 0
0.375 0.09375 0
0.34375 0.125 0
0.375 0.125 0
0.375 0 0
0.40625 0 0
0.375 0.03125 0
0.40625 0.03125 0
0.40625 0 0
0.4375 0 0
0.40625 0.03125 0
0.4375 0.03125 0
0.375 0.03125 0
0.40625 0.03125 0
0.375 0.0625 0
0.40625 0.0625 0
0.40625 0.03125 0
0.4375 0.03125 0
0.40625 0.0625 0
0.4375 0.0625 0
0.4375 0 0
0.46875 0 0
0.4375 0.03125 0
0.46875 0.03125 0
0.46875 0 0
0.5 0 0
0.46875 0.03125 0
0.5 0.03125 0
0.4375 0.03125 0
0.46875 0.03125 0
0.4375 0.0625 0
0.46875 0.0625 0
0.46875 0.03125 0
0.5 0.03125 0
0.46875 0.0625 0
0.5 0.0625 0
0.375 0.0625 0
0.40625 0.0625 0
0.375 0.09375 0
0.40625 0.09375 0
0.40625 0.0625 0
0.4375 0.0625 0
0.40625 0.09375 0
0.4375 0.09375 0
0.375 0.09375 0
0.40625 0.09375 0
0.375 0.125 0
0.40625 0.125 0
0.40625 0.09375 0
0.4375 0.09375 0
0.40625 0.125 0
0.4375 0.125 0
0.4375 0.0625 0
0.46875 0.0625 0
0.4375 0.09375 0
0.46875 0.09375 0
0.46875 0.0625 0
0.5 0.0625 0
0.46875 0.09375 0
0.5 0.09375 0
0.4375 0.09375 0
0.46875 0.09375 0
0.4375 0.125 0
0.46875 0.125 0
0.46875 0.09375 0
0.5 0.09375 0
0.46875 0.125 0
0.5 0.125 0
0.25 0.125 0
0.28125 0.125 0
0.25 0.15625 0
0.28125 0.15625 0
0.28125 0.125 0
0.3125 0.125 0
0.28125 0.15625 0
0.3125 0.15625 0
0.25 0.15625 0
0.28125 0.15625 0
0.25 0.1875 0
0.28125 0.1875 0
0.28125 0.15625 0
0.3125 0.15625 0
0.28125 0.1875 0
0.3125 0.1875 0
0.3125 0.125 0
0.34375 0.125 0
0.3125 0.15625 0
0.34375 0.15625 0
0.34375 0.125 0
0.375 0.125 0
0.34375 0.15625 0
0.375 0.15625 0
0.3125 0.15625 0
0.34375 0.15625 0
0.3125 0.1875 0
0.34375 0.1875 0
0.34375 0.15625 0
0.375 0.15625 0
0.34375 0.1875 0
0.375 0.1875 0
0.25 0.1875 0
0.28125 0.1875 0
0.25 0.21875 0
0.28125 0.21875 0
0.28125 0.1875 0
0.3125 0.1875 0
0.28125 0.21875 0
0.3125 0.21875 0
0.25 0.21875 0
0.28125 0.21875 0
0.25 0.25 0
0.28125 0.25 0
0.28125 0.21875 0
0.3125 0.21875 0
0.28125 0.25 0
0.3125 0.25 0
0.3125 0.1875 0
0.34375 0.1875 0
0.3125 0.21875 0
0.34375 0.21875 0
0.34375 0.1875 0
0.375 0.1875 0
0.34375 0.21875 0
0.375 0.21875 0
0.3125 0.21875 0
0.34375 0.21875 0
0.3125 0.25 0
0.34375 0.25 0
0.34375 0.21875 0
0.375 0.21875 0
0.34375 0.25 0
0.375 0.25 0
0.375 0.125 0
0.40625 0.125 0
0.375 0.15625 0
0.40625 0.15625 0
0.40625 0.125 0
0.4375 0.125 0
0.40625 0.15625 0
0.4375 0.15625 0
0.375 0.15625 0
0.40625 0.15625 0
0.375 0.1875 0
0.40625 0.1875 0
0.40625 0.15625 0
0.4375 0.15625 0
0.40625 0.1875 0
0.4375 0.1875 0
0.4375 0.125 0
0.46875 0.125 0
0.4375 0.15625 0
0.46875 0.15625 0
0.46875 0.125 0
0.5 0.125 0
0.46875 0.15625 0
0.5 0.15625 0
0.4375 0.15625 0
0.46875 0.15625 0
0.4375 0.1875 0
0.46875 0.1875 0
0.46875 0.15625 0
0.5 0.15625 0
0.46875 0.1875 0
0.5 0.1875 0
0.375 0.1875 0
0.40625 0.1875 0
0.375 0.21875 0
0.40625 0.21875 0
0.40625 0.1875 0
0.4375 0.1875 0
0.40625 0.21875 0
0.4375 0.21875 0
0.375 0.21875 0
0.40625 0.21875 0
0.375 0.25 0
0.40625 0.25 0
0.40625 0.21875 0
0.4375 0.21875 0
0.40625 0.25 0
0.4375 0.25 0
0.4375 0.1875 0
0.46875 0.1875 0
0.4375 0.21875 0
0.46875 0.21875 0
0.46875 0.1875 0
0.5 0.1875 0
0.46875 0.21875 0
0.5 0.21875 0
0.4375 0.21875 0
0.46875 0.21875 0
0.4375 0.25 0
0.46875 0.25 0
0.46875 0.21875 0
0.5 0.21875 0
0.46875 0.25 0
0.5 0.25 0
0 0.25 0
0.03125 0.25 0
0 0.28125 0
0.03125 0.28125 0
0.03125 0.25 0
0.0625 0.25 0
0.03125 0.28125 0
0.0625 0.28125 0
0 0.28125 0
0.03125 0.28125 0
0 0.3125 0
0.03125 0.3125 0
0.03125 0.28125 0
0.0625 0.28125 0
0.03125 0.3125 0
0.0625 0.3125 0
0.0625 0.25 0
0.09375 0.25 0
0.0625 0.28125 0
0.09375 0.28125 0
0.09375 0.25 0
0.125 0.25 0
0.09375 0.28125 0
0.125 0.28125 0
0.0625 0.28125 0
0.09375 0.28125 0
0.0625 0.3125 0
0.09375 0.3125 0
0.09375 0.28125 0
0.125 0.28125 0
0.09375 0.3125 0
0.125 0.3125 0
0 0.3125 0
0.03125 0.3125 0
0 0.34375 0
0.03125 0.34375 0
0.03125 0.3125 0
0.0625 0.3125 0
0.03125 0.34375 0
0.0625 0.34375 0
0 0.34375 0
0.03125 0.34375 0
0 0.375 0
0.03125 0.375 0
0.03125 0.34375 0
0.0625 0.34375 0
0.03125 0.375 0
0.0625 0.375 0
0.0625 0.3125 0
0.09375 0.3125 0
0.0625 0.34375 0
0.09375 0.34375 0
0.09375 0.3125 0
0.125 0.3125 0
0.09375 0.34375 0
0.125 0.34375 0
0.0625 0.34375 0
0.09375 0.34375 0
0.0625 0.375 0
0.09375 0.375 0
0.09375 0.34375 0
0.125 0.34375 0
0.09375 0.375 0
0.125 0.375 0
0.125 0.25 0
0.15625 0.25 0
0.125 0.28125 0
0.15625 0.28125 0
0.15625 0.25 0
0.1875 0.25 0
0.15625 0.28125 0
0.1875 0.28125 0
0.125 0.28125 0
0.15625 0.28125 0
0.125 0.3125 0
0.15625 0.3125 0
0.15625 0.28125 0
0.1875 0.28125 0
0.15625 0.3125 0
0.1875 0.3125 0
0.1875 0.25 0
0.21875 0.25 0
0.1875 0.28125 0
0.21875 0.28125 0
0.21875 0.25 0
0.25 0.25 0
0.21875 0.28125 0
0.25 0.28125 0
0.1875 0.28125 0
0.21875 0.28125 0
0.1875 0.3125 0
0.21875 0.3125 0
0.21875 0.28125 0
0.25 0.28125 0
0.21875 0.3125 0
0.25 0.3125 0
0.125 0.3125 0
0.15625 0.3125 0
0.125 0.34375 0
0.15625 0.34375 0
0.15625 0.3125 0
0.1875 0.3125 0
0.15625 0.34375 0
0.1875 0.34375 0
0.125 0.34375 0
[...]
POINT_DATA 4096
SCALARS u_x double 1
LOOKUP_TABLE default
1.56565e-05 1.53801e-05 -3.38425e-05 -7.93813e-05 1.53801e-05 2.10701e-05 -7.93813e-05 -0.000463155 -3.38425e-05 -7.93813e-05 -0.000155613 -0.000256234 -7.93813e-05 -0.000463155 -0.000256234 -0.00106916 2.10701e-05 1.53165e-05 -0.000463155 -0.00113168 1.53165e-05 3.88807e-06 -0.00113168 -0.00201926 -0.000463155 -0.00113168 -0.00106916 -0.00230084 -0.00113168 -0.00201926 -0.00230084 -0.00386385 -0.000155613 -0.000256234 -0.000270844 -0.000408389 -0.000256234 -0.00106916 -0.000408389 -0.00159888 -0.000270844 -0.000408389 -0.000333852 -0.000522657 -0.000408389 -0.00159888 -0.000522657 -0.00200479 -0.00106916 -0.00230084 -0.00159888 -0.00329717 -0.00230084 -0.00386385 -0.00329717 -0.00538762 -0.00159888 -0.00329717 -0.00200479 -0.00407512 -0.00329717 -0.00538762 -0.00407512 -0.00657923 3.88807e-06 -9.44702e-06 -0.00201926 -0.00303327 -9.44702e-06 -2.28796e-05 -0.00303327 -0.00409878 -0.00201926 -0.00303327 -0.00386385 -0.00562202 -0.00303327 -0.00409878 -0.00562202 -0.00746265 -2.28796e-05 -3.56758e-05 -0.00409878 -0.00516066 -3.56758e-05 -4.75698e-05 -0.00516066 -0.00618102 -0.00409878 -0.00516066 -0.00746265 -0.00929726 -0.00516066 -0.00618102 -0.00929726 -0.0110618 -0.00386385 -0.00562202 -0.00538762 -0.00770337 -0.00562202 -0.00746265 -0.00770337 -0.0101118 -0.00538762 -0.00770337 -0.00657923 -0.00932239 -0.00770337 -0.0101118 -0.00932239 -0.0121569 -0.00746265 -0.00929726 -0.0101118 -0.0125061 -0.00929726 -0.0110618 -0.0125061 -0.0148069 -0.0101118 -0.0125061 -0.0121569 -0.0149649 -0.0125061 -0.0148069 -0.0149649 -0.0176583 -0.000333852 -0.000522657 -0.000324667 -0.000611207 -0.000522657 -0.00200479 -0.000611207 -0.00230568 -0.000324667 -0.000611207 -0.00023526 -0.000689068 -0.000611207 -0.00230568 -0.000689068 -0.00253846 -0.00200479 -0.00407512 -0.00230568 -0.00467081 -0.00407512 -0.00657923 -0.00467081 -0.00750467 -0.00230568 -0.00467081 -0.00253846 -0.00514811 -0.00467081 -0.00750467 -0.00514811 -0.00825824 -0.00023526 -0.000689068 -6.211e-05 -0.000768609 -0.000689068 -0.00253846 -0.000768609 -0.00273852 -6.211e-05 -0.000768609 0.00019722 -0.000858994 -0.000768609 -0.00273852 -0.000858994 -0.0029339 -0.00253846 -0.00514811 -0.00273852 -0.00557045 -0.00514811 -0.00825824 -0.00557045 -0.00893253 -0.00273852 -0.00557045 -0.0029339 -0.0059899 -0.00557045 -0.00893253 -0.0059899 -0.00960446 -0.00657923 -0.00932239 -0.00750467 -0.010588 -0.00932239 -0.0121569 -0.010588 -0.0137581 -0.00750467 -0.010588 -0.00825824 -0.0116301 -0.010588 -0.0137581 -0.0116301 -0.0150852 -0.0121569 -0.0149649 -0.0137581 -0.0168884 -0.0149649 -0.0176583 -0.0168884 -0.0198848 -0.0137581 -0.0168884 -0.0150852 -0.0184885 -0.0168884 -0.0198848 -0.0184885 -0.0217405 -0.00825824 -0.0116301 -0.00893253 -0.0125719 -0.0116301 -0.0150852 -0.0125719 -0.016293 -0.00893253 -0.0125719 -0.00960446 -0.0135148 -0.0125719 -0.016293 -0.0135148 -0.0175071 -0.0150852 -0.0184885 -0.016293 -0.0199517 -0.0184885 -0.0217405 -0.0199517 -0.0234434 -0.016293 -0.0199517 -0.0175071 -0.0214276 -0.0199517 -0.0234434 -0.0214276 -0.0251654 -4.75698e-05 -5.84925e-05 -0.00618102 -0.00713418 -5.84925e-05 -6.84264e-05 -0.00713418 -0.00800217 -0.00618102 -0.00713418 -0.0110618 -0.0127111 -0.00713418 -0.00800217 -0.0127111 -0.0142125 -6.84264e-05 -7.73408e-05 -0.00800217 -0.00877152 -7.73408e-05 -8.51736e-05 -0.00877152 -0.00943129 -0.00800217 -0.00877152 -0.0142125 -0.0155415 -0.00877152 -0.00943129 -0.0155415 -0.0166785 -0.0110618 -0.0127111 -0.0148069 -0.0169562 -0.0127111 -0.0142125 -0.0169562 -0.0189114 -0.0148069 -0.0169562 -0.0176583 -0.0201716 -0.0169562 -0.0189114 -0.0201716 -0.0224561 -0.0142125 -0.0155415 -0.0189114 -0.0206402 -0.0155415 -0.0166785 -0.0206402 -0.0221165 -0.0189114 -0.0206402 -0.0224561 -0.0244742 -0.0206402 -0.0221165 -0.0244742 -0.0261958 -8.51736e-05 -9.18345e-05 -0.00943129 -0.00997205 -9.18345e-05 -9.72138e-05 -0.00997205 -0.0103855 -0.00943129 -0.00997205 -0.0166785 -0.017607 -0.00997205 -0.0103855 -0.017607 -0.0183128 -9.72138e-05 -0.000101191 -0.0103855 -0.0106642 -0.000101191 -0.000103645 -0.0106642 -0.0108022 -0.0103855 -0.0106642 -0.0183128 -0.0187837 -0.0106642 -0.0108022 -0.0187837 -0.0190098 -0.0166785 -0.017607 -0.0221165 -0.0233189 -0.017607 -0.0183128 -0.0233189 -0.0242292 -0.0221165 -0.0233189 -0.0261958 -0.0275962 -0.0233189 -0.0242292 -0.0275962 -0.0286543 -0.0183128 -0.0187837 -0.0242292 -0.024832 -0.0187837 -0.0190098 -0.024832 -0.0251151 -0.0242292 -0.024832 -0.0286543 -0.0293527 -0.024832 -0.0251151 -0.0293527 -0.0296774 -0.0176583 -0.0201716 -0.0198848 -0.0226775 -0.0201716 -0.0224561 -0.0226775 -0.0252141 -0.0198848 -0.0226775 -0.0217405 -0.0247683 -0.0226775 -0.0252141 -0.0247683 -0.0275172 -0.0224561 -0.0244742 -0.0252141 -0.027454 -0.0244742 -0.0261958 -0.027454 -0.0293646 -0.0252141 -0.027454 -0.0275172 -0.029945 -0.027454 -0.0293646 -0.029945 -0.0320174 -0.0217405 -0.0247683 -0.0234434 -0.0266921 -0.0247683 -0.0275172 -0.0266921 -0.0296415 -0.0234434 -0.0266921 -0.0251654 -0.0286418 -0.0266921 -0.0296415 -0.0286418 -0.0317988 -0.0275172 -0.029945 -0.0296415 -0.0322481 -0.029945 -0.0320174 -0.0322481 -0.0344766 -0.0296415 -0.0322481 -0.0317988 -0.0345921 -0.0322481 -0.0344766 -0.0345921 -0.036986 -0.0261958 -0.0275962 -0.0293646 -0.0309187 -0.0275962 -0.0286543 -0.0309187 -0.0320937 -0.0293646 -0.0309187 -0.0320174 -0.0337058 -0.0309187 -0.0320937 -0.0337058 -0.0349861 -0.0286543 -0.0293527 -0.0320937 -0.0328704 -0.0293527 -0.0296774 -0.0328704 -0.0332334 -0.0320937 -0.0328704 -0.0349861 -0.0358378 -0.0328704 -0.0332334 -0.0358378 -0.036244 -0.0320174 -0.0337058 -0.0344766 -0.0362977 -0.0337058 -0.0349861 -0.0362977 -0.037686 -0.0344766 -0.0362977 -0.036986 -0.0389504 -0.0362977 -0.037686 -0.0389504 -0.0404588 -0.0349861 -0.0358378 -0.037686 -0.0386196 -0.0358378 -0.036244 -0.0386196 -0.0390798 -0.037686 -0.0386196 -0.0404588 -0.041488 -0.0386196 -0.0390798 -0.041488 -0.0420174 0.00019722 -0.000858994 0.000545835 -0.000966713 -0.000858994 -0.0029339 -0.000966713 -0.00314481 0.000545835 -0.000966713 0.000988296 -0.00109646 -0.000966713 -0.00314481 -0.00109646 -0.00338532 -0.0029339 -0.0059899 -0.00314481 -0.00644524 -0.0059899 -0.00960446 -0.00644524 -0.0103322 -0.00314481 -0.00644524 -0.00338532 -0.00696431 -0.00644524 -0.0103322 -0.00696431 -0.0111581 0.000988296 -0.00109646 0.00153095 -0.00125202 -0.00109646 -0.00338532 -0.00125202 -0.00366567 0.00153095 -0.00125202 0.00218202 -0.00143693 -0.00125202 -0.00366567 -0.00143693 -0.00399446 -0.00338532 -0.00696431 -0.00366567 -0.00756787 -0.00696431 -0.0111581 -0.00756787 -0.0121138 -0.00366567 -0.00756787 -0.00399446 -0.00827351 -0.00756787 -0.0121138 -0.00827351 -0.0132264 -0.00960446 -0.0135148 -0.0103322 -0.0145359 -0.0135148 -0.0175071 -0.0145359 -0.0188225 -0.0103322 -0.0145359 -0.0111581 -0.0156916 -0.0145359 -0.0188225 -0.0156916 -0.0203081 -0.0175071 -0.0214276 -0.0188225 -0.0230273 -0.0214276 -0.0251654 -0.0230273 -0.0270332 -0.0188225 -0.0230273 -0.0203081 -0.0248313 -0.0230273 -0.0270332 -0.0248313 -0.0291368 -0.0111581 -0.0156916 -0.0121138 -0.017024 -0.0156916 -0.0203081 -0.017024 -0.0220153 -0.0121138 -0.017024 -0.0132264 -0.0185685 -0.017024 -0.0220153 -0.0185685 -0.0239864 -0.0203081 -0.0248313 -0.0220153 -0.0268985 -0.0248313 -0.0291368 -0.0268985 -0.0315411 -0.0220153 -0.0268985 -0.0239864 -0.0292759 -0.0268985 -0.0315411 -0.0292759 -0.0342967 0.00218202 -0.00143693 0.00295174 -0.00165517 -0.00143693 -0.00399446 -0.00165517 -0.00438053 0.00295174 -0.00165517 0.00385249 -0.00191156 -0.00165517 -0.00438053 -0.00191156 -0.00483449 -0.00399446 -0.00827351 -0.00438053 -0.00909913 -0.00827351 -0.0132264 -0.00909913 -0.0145223 -0.00438053 -0.00909913 -0.00483449 -0.0100658 -0.00909913 -0.0145223 -0.0100658 -0.0160326 0.00385249 -0.00191156 0.00489912 -0.00221238 -0.00191156 -0.00483449 -0.00221238 -0.00537036 0.00489912 -0.00221238 0.00610941 -0.00256595 -0.00221238 -0.00537036 -0.00256595 -0.0060074 -0.00483449 -0.0100658 -0.00537036 -0.0112008 -0.0100658 -0.0160326 -0.0112008 -0.0177961 -0.00537036 -0.0112008 -0.0060074 -0.0125405 -0.0112008 -0.0177961 -0.0125405 -0.0198642 -0.0132264 -0.0185685 -0.0145223 -0.0203595 -0.0185685 -0.0239864 -0.0203595 -0.0262612 -0.0145223 -0.0203595 -0.0160326 -0.0224357 -0.0203595 -0.0262612 -0.0224357 -0.0288839 -0.0239864 -0.0292759 -0.0262612 -0.0320072 -0.0292759 -0.0342967 -0.0320072 -0.0374482 -0.0262612 -0.0320072 -0.0288839 -0.0351385 -0.0320072 -0.0374482 -0.0351385 -0.0410416 -0.0160326 -0.0224357 -0.0177961 -0.024845 -0.0224357 -0.0288839 -0.024845 -0.0319072 -0.0177961 -0.024845 -0.0198642 -0.027649 -0.024845 -0.0319072 -0.027649 -0.0353973 -0.0288839 -0.0351385 -0.0319072 -0.0387236 -0.0351385 -0.0410416 -0.0387236 -0.0451281 -0.0319072 -0.0387236 -0.0353973 -0.0428282 -0.0387236 -0.0451281 -0.0428282 -0.0497683 -0.0251654 -0.0286418 -0.0270332 -0.0307579 -0.0286418 -0.0317988 -0.0307579 -0.0341421 -0.0270332 -0.0307579 -0.0291368 -0.0331389 -0.0307579 -0.0341421 -0.0331389 -0.0367769 -0.0317988 -0.0345921 -0.0341421 -0.0371409 -0.0345921 -0.036986 -0.0371409 -0.0397184 -0.0341421 -0.0371409 -0.0367769 -0.0400062 -0.0371409 -0.0397184 -0.0400062 -0.042791 -0.0291368 -0.0331389 -0.0315411 -0.0358543 -0.0331389 -0.0367769 -0.0358543 -0.0397765 -0.0315411 -0.0358543 -0.0342967 -0.0389564 -0.0358543 -0.0397765 -0.0389564 -0.043194 -0.0367769 -0.0400062 -0.0397765 -0.0432638 -0.0400062 -0.042791 -0.0432638 -0.0462818 -0.0397765 -0.0432638 -0.043194 -0.0469672 -0.0432638 -0.0462818 -0.0469672 -0.0502444 -0.036986 -0.0389504 -0.0397184 -0.0418443 -0.0389504 -0.0404588 -0.0418443 -0.0434913 -0.0397184 -0.0418443 -0.042791 -0.0451011 -0.0418443 -0.0434913 -0.0451011 -0.0469093 -0.0404588 -0.041488 -0.0434913 -0.0446349 -0.041488 -0.0420174 -0.0446349 -0.0452522 -0.0434913 -0.0446349 -0.0469093 -0.0481896 -0.0446349 -0.0452522 -0.0481896 -0.0489168 -0.042791 -0.0451011 -0.0462818 -0.0488014 -0.0451011 -0.0469093 -0.0488014 -0.0507956 -0.0462818 -0.0488014 -0.0502444 -0.0529988 -0.0488014 -0.0507956 -0.0529988 -0.0552052 -0.0469093 -0.0481896 -0.0507956 -0.0522378 -0.0481896 -0.0489168 -0.0522378 -0.0531005 -0.0507956 -0.0522378 -0.0552052 -0.056837 -0.0522378 -0.0531005 -0.056837 -0.0578647 -0.0342967 -0.0389564 -0.0374482 -0.0424898 -0.0389564 -0.043194 -0.0424898 -0.0470723 -0.0374482 -0.0424898 -0.0410416 -0.0464977 -0.0424898 -0.0470723 -0.0464977 -0.051451 -0.043194 -0.0469672 -0.0470723 -0.0511573 -0.0469672 -0.0502444 -0.0511573 -0.0547177 -0.0470723 -0.0511573 -0.051451 -0.0558691 -0.0511573 -0.0547177 -0.0558691 -0.0597323 -0.0410416 -0.0464977 -0.0451281 -0.0510265 -0.0464977 -0.051451 -0.0510265 -0.0563695 -0.0451281 -0.0510265 -0.0497683 -0.0561281 -0.0510265 -0.0563695 -0.0561281 -0.0618695 -0.051451 -0.0558691 -0.0563695 -0.0611347 -0.0558691 -0.0597323 -0.0611347 -0.0653131 -0.0563695 -0.0611347 -0.0618695 -0.0669842 -0.0611347 -0.0653131 -0.0669842 -0.0714787 -0.0502444 -0.0529988 -0.0547177 -0.0577311 -0.0529988 -0.0552052 -0.0577311 -0.0601756 -0.0547177 -0.0577311 -0.0597323 -0.0630253 -0.0577311 -0.0601756 -0.0630253 -0.0657323 -0.0552052 -0.056837 -0.0601756 -0.0620265 -0.056837 -0.0578647 -0.0620265 -0.0632531 -0.0601756 -0.0620265 -0.0657323 -0.0678323 -0.0620265 -0.0632531 -0.0678323 -0.0692957 -0.0597323 -0.0630253 -0.0653131 -0.0689002 -0.0630253 -0.0657323 -0.0689002 -0.0718897 -0.0653131 -0.0689002 -0.0714787 -0.0753642 -0.0689002 -0.0718897 -0.0753642 -0.0786484 -0.0657323 -0.0678323 -0.0718897 -0.0742678 -0.0678323 -0.0692957 -0.0742678 -0.0760085 -0.0718897 -0.0742678 -0.0786484 -0.0813289 -0.0742678 -0.0760085 -0.0813289 -0.0833876 -0.000103645 -0.00010446 -0.0108022 -0.0107946 -0.00010446 -0.000103536 -0.0107946 -0.0106382 -0.0108022 -0.0107946 -0.0190098 -0.0189836 -0.0107946 -0.0106382 -0.0189836 -0.0187002 -0.000103536 -0.000100791 -0.0106382 -0.0103314 -0.000100791 -9.61677e-05 -0.0103314 -0.00987488 -0.0106382 -0.0103314 -0.0187002 -0.018158 -0.0103314 -0.00987488 -0.018158 -0.017359 -0.0190098 -0.0189836 -0.0251151 -0.0250692 -0.0189836 -0.0187002 -0.0250692 -0.0246889 -0.0251151 -0.0250692 -0.0296774 -0.0296182 -0.0250692 -0.0246889 -0.0296182 -0.0291688 -0.0187002 -0.018158 -0.0246889 -0.0239727 -0.018158 -0.017359 -0.0239727 -0.0229238 -0.0246889 -0.0239727 -0.0291688 -0.0283276 -0.0239727 -0.0229238 -0.0283276 -0.0270985 -9.61677e-05 -8.96332e-05 -0.00987488 -0.00927183 -8.96332e-05 -8.11864e-05 -0.00927183 -0.00852827 -0.00987488 -0.00927183 -0.017359 -0.0163094 -0.00927183 -0.00852827 -0.0163094 -0.0150207 -8.11864e-05 -7.08561e-05 -0.00852827 -0.00765414 -7.08561e-05 -5.87181e-05 -0.00765414 -0.00666456 -0.00852827 -0.00765414 -0.0150207 -0.0135109 -0.00765414 -0.00666456 -0.0135109 -0.0118074 -0.017359 -0.0163094 -0.0229238 -0.0215508 -0.0163094 -0.0150207 -0.0215508 -0.0198695 -0.0229238 -0.0215508 -0.0270985 -0.0254919 -0.0215508 -0.0198695 -0.0254919 -0.0235258 -0.0150207 -0.0135109 -0.0198695 -0.017904 -0.0135109 -0.0118074 -0.017904 -0.01569 -0.0198695 -0.017904 -0.0235258 -0.0212284 -0.017904 -0.01569 -0.0212284 -0.018641 -0.0296774 -0.0296182 -0.0332334 -0.0331711 -0.0296182 -0.0291688 -0.0331711 -0.0326765 -0.0332334 -0.0331711 -0.036244 -0.0361917 -0.0331711 -0.0326765 -0.0361917 -0.0356719 -0.0291688 -0.0283276 -0.0326765 -0.0317473 -0.0283276 -0.0270985 -0.0317473 -0.030387 -0.0326765 -0.0317473 -0.0356719 -0.0346811 -0.0317473 -0.030387 -0.0346811 -0.0332214 -0.036244 -0.0361917 -0.0390798 -0.0390517 -0.0361917 -0.0356719 -0.0390517 -0.0385239 -0.0390798 -0.0390517 -0.0420174 -0.0420293 -0.0390517 -0.0385239 -0.0420293 -0.0415093 -0.0356719 -0.0346811 -0.0385239 -0.0374903 -0.0346811 -0.0332214 -0.0374903 -0.0359506 -0.0385239 -0.0374903 -0.0415093 -0.0404474 -0.0374903 -0.0359506 -0.0404474 -0.0388393 -0.0270985 -0.0254919 -0.030387 -0.0286063 -0.0254919 -0.0235258 -0.0286063 -0.0264245 -0.030387 -0.0286063 -0.0332214 -0.0313026 -0.0286063 -0.0264245 -0.0313026 -0.0289438 -0.0235258 -0.0212284 -0.0264245 -0.023872 -0.0212284 -0.018641 -0.023872 -0.0209933 -0.0264245 -0.023872 -0.0289438 -0.0261763 -0.023872 -0.0209933 -0.0261763 -0.0230468 -0.0332214 -0.0313026 -0.0359506 -0.0339123 -0.0313026 -0.0289438 -0.0339123 -0.031393 -0.0359506 -0.0339123 -0.0388393 -0.036689 -0.0339123 -0.031393 -0.036689 -0.034011 -0.0289438 -0.0261763 -0.031393 -0.0284236 -0.0261763 -0.0230468 -0.0284236 -0.0250527 -0.031393 -0.0284236 -0.034011 -0.0308349 -0.0284236 -0.0250527 -0.0308349 -0.0272103 -5.87181e-05 -4.49076e-05 -0.00666456 -0.00558217 -4.49076e-05 -2.97895e-05 -0.00558217 -0.00443973 -0.00666456 -0.00558217 -0.0118074 -0.00994967 -0.00558217 -0.00443973 -0.00994967 -0.00799386 -2.97895e-05 -1.36017e-05 -0.00443973 -0.00328705 -1.36017e-05 9.0353e-07 -0.00328705 -0.00217855 -0.00443973 -0.00328705 -0.00799386 -0.00602068 -0.00328705 -0.00217855 -0.00602068 -0.00412134 -0.0118074 -0.00994967 -0.01569 -0.0132785 -0.00994967 -0.00799386 -0.0132785 -0.0107405 -0.01569 -0.0132785 -0.018641 -0.0158219 -0.0132785 -0.0107405 -0.0158219 -0.0128512 -0.00799386 -0.00602068 -0.0107405 -0.00817476 -0.00602068 -0.00412134 -0.00817476 -0.00569384 -0.0107405 -0.00817476 -0.0128512 -0.00983928 -0.00817476 -0.00569384 -0.00983928 -0.00691242 9.0353e-07 1.39102e-05 -0.00217855 -0.00126016 1.39102e-05 5.75117e-05 -0.00126016 -0.000275301 -0.00217855 -0.00126016 -0.00412134 -0.00249424 -0.00126016 -0.000275301 -0.00249424 -0.000887612 5.75117e-05 -1.60356e-05 -0.000275301 -0.00114724 -1.60356e-05 0.00908407 -0.00114724 0.0080645 -0.000275301 -0.00114724 -0.000887612 -0.00138378 -0.00114724 0.0080645 -0.00138378 0.00841323 -0.00412134 -0.00249424 -0.00569384 -0.00352011 -0.00249424 -0.000887612 -0.00352011 -0.00142785 -0.00569384 -0.00352011 -0.00691242 -0.00431052 -0.00352011 -0.00142785 -0.00431052 -0.00183788 -0.000887612 -0.00138378 -0.00142785 -0.0015628 -0.00138378 0.00841323 -0.0015628 0.00826824 -0.00142785 -0.0015628 -0.00183788 -0.00167666 -0.0015628 0.00826824 -0.00167666 0.00819212 -0.018641 -0.0158219 -0.0209933 -0.017852 -0.0158219 -0.0128512 -0.017852 -0.014535 -0.0209933 -0.017852 -0.0230468 -0.0196229 -0.017852 -0.014535 -0.0196229 -0.0159978 -0.0128512 -0.00983928 -0.014535 -0.0111614 -0.00983928 -0.00691242 -0.0111614 -0.00787019 -0.014535 -0.0111614 -0.0159978 -0.0123006 -0.0111614 -0.00787019 -0.0123006 -0.00868364 -0.0230468 -0.0196229 -0.0250527 -0.0213516 -0.0196229 -0.0159978 -0.0213516 -0.017421 -0.0250527 -0.0213516 -0.0272103 -0.0232129 -0.0213516 -0.017421 -0.0232129 -0.0189522 -0.0159978 -0.0123006 -0.017421 -0.0134014 -0.0123006 -0.00868364 -0.0134014 -0.00946156 -0.017421 -0.0134014 -0.0189522 -0.0145829 -0.0134014 -0.00946156 -0.0145829 -0.0102934 -0.00691242 -0.00431052 -0.00787019 -0.0049194 -0.00431052 -0.00183788 -0.0049194 -0.00214039 -0.00787019 -0.0049194 -0.00868364 -0.00542599 -0.0049194 -0.00214039 -0.00542599 -0.0023827 -0.00183788 -0.00167666 -0.00214039 -0.00176161 -0.00167666 0.00819212 -0.00176161 0.00819462 -0.00214039 -0.00176161 -0.0023827 -0.00183835 -0.00176161 0.00819462 -0.00183835 0.00826957 -0.00868364 -0.00542599 -0.00946156 -0.00590445 -0.00542599 -0.0023827 -0.00590445 -0.00260572 -0.00946156 -0.00590445 -0.0102934 -0.00641448 -0.00590445 -0.00260572 -0.00641448 -0.00284098 -0.0023827 -0.00183835 -0.00260572 -0.00191948 -0.00183835 0.00826957 -0.00191948 0.00841992 -0.00260572 -0.00191948 -0.00284098 -0.0020148 -0.00191948 0.00841992 -0.0020148 0.0086456 -0.0420174 -0.0420293 -0.0452522 -0.0453222 -0.0420293 -0.0415093 -0.0453222 -0.0448262 -0.0452522 -0.0453222 -0.0489168 -0.0490659 -0.0453222 -0.0448262 -0.0490659 -0.0486133 -0.0415093 -0.0404474 -0.0448262 -0.0437493 -0.0404474 -0.0388393 -0.0437493 -0.0420816 -0.0448262 -0.0437493 -0.0486133 -0.0475371 -0.0437493 -0.0420816 -0.0475371 -0.0458199 -0.0489168 -0.0490659 -0.0531005 -0.0533544 -0.0490659 -0.0486133 -0.0533544 -0.0529695 -0.0531005 -0.0533544 -0.0578647 -0.0582549 -0.0533544 -0.0529695 -0.0582549 -0.0579698 -0.0486133 -0.0475371 -0.0529695 -0.0519155 -0.0475371 -0.0458199 -0.0519155 -0.0501649 -0.0529695 -0.0519155 -0.0579698 -0.0569689 -0.0519155 -0.0501649 -0.0569689 -0.0552111 -0.0388393 -0.036689 -0.0420816 -0.0398214 -0.036689 -0.034011 -0.0398214 -0.0369786 -0.0420816 -0.0398214 -0.0458199 -0.0434521 -0.0398214 -0.0369786 -0.0434521 -0.0404363 -0.034011 -0.0308349 -0.0369786 -0.03358 -0.0308349 -0.0272103 -0.03358 -0.0296752 -0.0369786 -0.03358 -0.0404363 -0.0367943 -0.03358 -0.0296752 -0.0367943 -0.0325746 -0.0458199 -0.0434521 -0.0501649 -0.0476967 -0.0434521 -0.0404363 -0.0476967 -0.044503 -0.0501649 -0.0476967 -0.0552111 -0.0526603 -0.0476967 -0.044503 -0.0526603 -0.0492928 -0.0404363 -0.0367943 -0.044503 -0.0405971 -0.0367943 -0.0325746 -0.0405971 -0.0360239 -0.044503 -0.0405971 -0.0492928 -0.0451083 -0.0405971 -0.0360239 -0.0451083 -0.0401442 -0.0578647 -0.0582549 -0.0632531 -0.0638179 -0.0582549 -0.0579698 -0.0638179 -0.063675 -0.0632531 -0.0638179 -0.0692957 -0.0700815 -0.0638179 -0.063675 -0.0700815 -0.0701353 -0.0579698 -0.0569689 -0.063675 -0.062771 -0.0569689 -0.0552111 -0.062771 -0.061048 -0.063675 -0.062771 -0.0701353 -0.0693894 -0.062771 -0.061048 -0.0693894 -0.0677644 -0.0692957 -0.0700815 -0.0760085 -0.0770695 -0.0700815 -0.0701353 -0.0770695 -0.077389 -0.0760085 -0.0770695 -0.0833876 -0.0847847 -0.0770695 -0.077389 -0.0847847 -0.0854532 -0.0701353 -0.0693894 -0.077389 -0.0768833 -0.0693894 -0.0677644 -0.0768833 -0.0754481 -0.077389 -0.0768833 -0.0854532 -0.0852944 -0.0768833 -0.0754481 -0.0852944 -0.084176 -0.0552111 -0.0526603 -0.061048 -0.0584489 -0.0526603 -0.0492928 -0.0584489 -0.0549276 -0.061048 -0.0584489 -0.0677644 -0.0651761 -0.0584489 -0.0549276 -0.0651761 -0.0615465 -0.0492928 -0.0451083 -0.0549276 -0.0504628 -0.0451083 -0.0401442 -0.0504628 -0.0450771 -0.0549276 -0.0504628 -0.0615465 -0.0568223 -0.0504628 -0.0450771 -0.0568223 -0.051 -0.0677644 -0.0651761 -0.0754481 -0.0729641 -0.0651761 -0.0615465 -0.0729641 -0.0693098 -0.0754481 -0.0729641 -0.084176 -0.081936 -0.0729641 -0.06930