# vtk DataFile Version 3.0
#This file was generated by the deal.II library on 2026/1/5 at 14:19:29
ASCII
DATASET UNSTRUCTURED_GRID

POINTS 4096 double
0 0 0
0.03125 0 0
0 0.03125 0
0.03125 0.03125 0
0.03125 0 0
0.0625 0 0
0.03125 0.03125 0
0.0625 0.03125 0
0 0.03125 0
0.03125 0.03125 0
0 0.0625 0
0.03125 0.0625 0
0.03125 0.03125 0
0.0625 0.03125 0
0.03125 0.0625 0
0.0625 0.0625 0
0.0625 0 0
0.09375 0 0
0.0625 0.03125 0
0.09375 0.03125 0
0.09375 0 0
0.125 0 0
0.09375 0.03125 0
0.125 0.03125 0
0.0625 0.03125 0
0.09375 0.03125 0
0.0625 0.0625 0
0.09375 0.0625 0
0.09375 0.03125 0
0.125 0.03125 0
0.09375 0.0625 0
0.125 0.0625 0
0 0.0625 0
0.03125 0.0625 0
0 0.09375 0
0.03125 0.09375 0
0.03125 0.0625 0
0.0625 0.0625 0
0.03125 0.09375 0
0.0625 0.09375 0
0 0.09375 0
0.03125 0.09375 0
0 0.125 0
0.03125 0.125 0
0.03125 0.09375 0
0.0625 0.09375 0
0.03125 0.125 0
0.0625 0.125 0
0.0625 0.0625 0
0.09375 0.0625 0
0.0625 0.09375 0
0.09375 0.09375 0
0.09375 0.0625 0
0.125 0.0625 0
0.09375 0.09375 0
0.125 0.09375 0
0.0625 0.09375 0
0.09375 0.09375 0
0.0625 0.125 0
0.09375 0.125 0
0.09375 0.09375 0
0.125 0.09375 0
0.09375 0.125 0
0.125 0.125 0
0.125 0 0
0.15625 0 0
0.125 0.03125 0
0.15625 0.03125 0
0.15625 0 0
0.1875 0 0
0.15625 0.03125 0
0.1875 0.03125 0
0.125 0.03125 0
0.15625 0.03125 0
0.125 0.0625 0
0.15625 0.0625 0
0.15625 0.03125 0
0.1875 0.03125 0
0.15625 0.0625 0
0.1875 0.0625 0
0.1875 0 0
0.21875 0 0
0.1875 0.03125 0
0.21875 0.03125 0
0.21875 0 0
0.25 0 0
0.21875 0.03125 0
0.25 0.03125 0
0.1875 0.03125 0
0.21875 0.03125 0
0.1875 0.0625 0
0.21875 0.0625 0
0.21875 0.03125 0
0.25 0.03125 0
0.21875 0.0625 0
0.25 0.0625 0
0.125 0.0625 0
0.15625 0.0625 0
0.125 0.09375 0
0.15625 0.09375 0
0.15625 0.0625 0
0.1875 0.0625 0
0.15625 0.09375 0
0.1875 0.09375 0
0.125 0.09375 0
0.15625 0.09375 0
0.125 0.125 0
0.15625 0.125 0
0.15625 0.09375 0
0.1875 0.09375 0
0.15625 0.125 0
0.1875 0.125 0
0.1875 0.0625 0
0.21875 0.0625 0
0.1875 0.09375 0
0.21875 0.09375 0
0.21875 0.0625 0
0.25 0.0625 0
0.21875 0.09375 0
0.25 0.09375 0
0.1875 0.09375 0
0.21875 0.09375 0
0.1875 0.125 0
0.21875 0.125 0
0.21875 0.09375 0
0.25 0.09375 0
0.21875 0.125 0
0.25 0.125 0
0 0.125 0
0.03125 0.125 0
0 0.15625 0
0.03125 0.15625 0
0.03125 0.125 0
0.0625 0.125 0
0.03125 0.15625 0
0.0625 0.15625 0
0 0.15625 0
0.03125 0.15625 0
0 0.1875 0
0.03125 0.1875 0
0.03125 0.15625 0
0.0625 0.15625 0
0.03125 0.1875 0
0.0625 0.1875 0
0.0625 0.125 0
0.09375 0.125 0
0.0625 0.15625 0
0.09375 0.15625 0
0.09375 0.125 0
0.125 0.125 0
0.09375 0.15625 0
0.125 0.15625 0
0.0625 0.15625 0
0.09375 0.15625 0
0.0625 0.1875 0
0.09375 0.1875 0
0.09375 0.15625 0
0.125 0.15625 0
0.09375 0.1875 0
0.125 0.1875 0
0 0.1875 0
0.03125 0.1875 0
0 0.21875 0
0.03125 0.21875 0
0.03125 0.1875 0
0.0625 0.1875 0
0.03125 0.21875 0
0.0625 0.21875 0
0 0.21875 0
0.03125 0.21875 0
0 0.25 0
0.03125 0.25 0
0.03125 0.21875 0
0.0625 0.21875 0
0.03125 0.25 0
0.0625 0.25 0
0.0625 0.1875 0
0.09375 0.1875 0
0.0625 0.21875 0
0.09375 0.21875 0
0.09375 0.1875 0
0.125 0.1875 0
0.09375 0.21875 0
0.125 0.21875 0
0.0625 0.21875 0
0.09375 0.21875 0
0.0625 0.25 0
0.09375 0.25 0
0.09375 0.21875 0
0.125 0.21875 0
0.09375 0.25 0
0.125 0.25 0
0.125 0.125 0
0.15625 0.125 0
0.125 0.15625 0
0.15625 0.15625 0
0.15625 0.125 0
0.1875 0.125 0
0.15625 0.15625 0
0.1875 0.15625 0
0.125 0.15625 0
0.15625 0.15625 0
0.125 0.1875 0
0.15625 0.1875 0
0.15625 0.15625 0
0.1875 0.15625 0
0.15625 0.1875 0
0.1875 0.1875 0
0.1875 0.125 0
0.21875 0.125 0
0.1875 0.15625 0
0.21875 0.15625 0
0.21875 0.125 0
0.25 0.125 0
0.21875 0.15625 0
0.25 0.15625 0
0.1875 0.15625 0
0.21875 0.15625 0
0.1875 0.1875 0
0.21875 0.1875 0
0.21875 0.15625 0
0.25 0.15625 0
0.21875 0.1875 0
0.25 0.1875 0
0.125 0.1875 0
0.15625 0.1875 0
0.125 0.21875 0
0.15625 0.21875 0
0.15625 0.1875 0
0.1875 0.1875 0
0.15625 0.21875 0
0.1875 0.21875 0
0.125 0.21875 0
0.15625 0.21875 0
0.125 0.25 0
0.15625 0.25 0
0.15625 0.21875 0
0.1875 0.21875 0
0.15625 0.25 0
0.1875 0.25 0
0.1875 0.1875 0
0.21875 0.1875 0
0.1875 0.21875 0
0.21875 0.21875 0
0.21875 0.1875 0
0.25 0.1875 0
0.21875 0.21875 0
0.25 0.21875 0
0.1875 0.21875 0
0.21875 0.21875 0
0.1875 0.25 0
0.21875 0.25 0
0.21875 0.21875 0
0.25 0.21875 0
0.21875 0.25 0
0.25 0.25 0
0.25 0 0
0.28125 0 0
0.25 0.03125 0
0.28125 0.03125 0
0.28125 0 0
0.3125 0 0
0.28125 0.03125 0
0.3125 0.03125 0
0.25 0.03125 0
0.28125 0.03125 0
0.25 0.0625 0
0.28125 0.0625 0
0.28125 0.03125 0
0.3125 0.03125 0
0.28125 0.0625 0
0.3125 0.0625 0
0.3125 0 0
0.34375 0 0
0.3125 0.03125 0
0.34375 0.03125 0
0.34375 0 0
0.375 0 0
0.34375 0.03125 0
0.375 0.03125 0
0.3125 0.03125 0
0.34375 0.03125 0
0.3125 0.0625 0
0.34375 0.0625 0
0.34375 0.03125 0
0.375 0.03125 0
0.34375 0.0625 0
0.375 0.0625 0
0.25 0.0625 0
0.28125 0.0625 0
0.25 0.09375 0
0.28125 0.09375 0
0.28125 0.0625 0
0.3125 0.0625 0
0.28125 0.09375 0
0.3125 0.09375 0
0.25 0.09375 0
0.28125 0.09375 0
0.25 0.125 0
0.28125 0.125 0
0.28125 0.09375 0
0.3125 0.09375 0
0.28125 0.125 0
0.3125 0.125 0
0.3125 0.0625 0
0.34375 0.0625 0
0.3125 0.09375 0
0.34375 0.09375 0
0.34375 0.0625 0
0.375 0.0625 0
0.34375 0.09375 0
0.375 0.09375 0
0.3125 0.09375 0
0.34375 0.09375 0
0.3125 0.125 0
0.34375 0.125 0
0.34375 0.09375 0
0.375 0.09375 0
0.34375 0.125 0
0.375 0.125 0
0.375 0 0
0.40625 0 0
0.375 0.03125 0
0.40625 0.03125 0
0.40625 0 0
0.4375 0 0
0.40625 0.03125 0
0.4375 0.03125 0
0.375 0.03125 0
0.40625 0.03125 0
0.375 0.0625 0
0.40625 0.0625 0
0.40625 0.03125 0
0.4375 0.03125 0
0.40625 0.0625 0
0.4375 0.0625 0
0.4375 0 0
0.46875 0 0
0.4375 0.03125 0
0.46875 0.03125 0
0.46875 0 0
0.5 0 0
0.46875 0.03125 0
0.5 0.03125 0
0.4375 0.03125 0
0.46875 0.03125 0
0.4375 0.0625 0
0.46875 0.0625 0
0.46875 0.03125 0
0.5 0.03125 0
0.46875 0.0625 0
0.5 0.0625 0
0.375 0.0625 0
0.40625 0.0625 0
0.375 0.09375 0
0.40625 0.09375 0
0.40625 0.0625 0
0.4375 0.0625 0
0.40625 0.09375 0
0.4375 0.09375 0
0.375 0.09375 0
0.40625 0.09375 0
0.375 0.125 0
0.40625 0.125 0
0.40625 0.09375 0
0.4375 0.09375 0
0.40625 0.125 0
0.4375 0.125 0
0.4375 0.0625 0
0.46875 0.0625 0
0.4375 0.09375 0
0.46875 0.09375 0
0.46875 0.0625 0
0.5 0.0625 0
0.46875 0.09375 0
0.5 0.09375 0
0.4375 0.09375 0
0.46875 0.09375 0
0.4375 0.125 0
0.46875 0.125 0
0.46875 0.09375 0
0.5 0.09375 0
0.46875 0.125 0
0.5 0.125 0
0.25 0.125 0
0.28125 0.125 0
0.25 0.15625 0
0.28125 0.15625 0
0.28125 0.125 0
0.3125 0.125 0
0.28125 0.15625 0
0.3125 0.15625 0
0.25 0.15625 0
0.28125 0.15625 0
0.25 0.1875 0
0.28125 0.1875 0
0.28125 0.15625 0
0.3125 0.15625 0
0.28125 0.1875 0
0.3125 0.1875 0
0.3125 0.125 0
0.34375 0.125 0
0.3125 0.15625 0
0.34375 0.15625 0
0.34375 0.125 0
0.375 0.125 0
0.34375 0.15625 0
0.375 0.15625 0
0.3125 0.15625 0
0.34375 0.15625 0
0.3125 0.1875 0
0.34375 0.1875 0
0.34375 0.15625 0
0.375 0.15625 0
0.34375 0.1875 0
0.375 0.1875 0
0.25 0.1875 0
0.28125 0.1875 0
0.25 0.21875 0
0.28125 0.21875 0
0.28125 0.1875 0
0.3125 0.1875 0
0.28125 0.21875 0
0.3125 0.21875 0
0.25 0.21875 0
0.28125 0.21875 0
0.25 0.25 0
0.28125 0.25 0
0.28125 0.21875 0
0.3125 0.21875 0
0.28125 0.25 0
0.3125 0.25 0
0.3125 0.1875 0
0.34375 0.1875 0
0.3125 0.21875 0
0.34375 0.21875 0
0.34375 0.1875 0
0.375 0.1875 0
0.34375 0.21875 0
0.375 0.21875 0
0.3125 0.21875 0
0.34375 0.21875 0
0.3125 0.25 0
0.34375 0.25 0
0.34375 0.21875 0
0.375 0.21875 0
0.34375 0.25 0
0.375 0.25 0
0.375 0.125 0
0.40625 0.125 0
0.375 0.15625 0
0.40625 0.15625 0
0.40625 0.125 0
0.4375 0.125 0
0.40625 0.15625 0
0.4375 0.15625 0
0.375 0.15625 0
0.40625 0.15625 0
0.375 0.1875 0
0.40625 0.1875 0
0.40625 0.15625 0
0.4375 0.15625 0
0.40625 0.1875 0
0.4375 0.1875 0
0.4375 0.125 0
0.46875 0.125 0
0.4375 0.15625 0
0.46875 0.15625 0
0.46875 0.125 0
0.5 0.125 0
0.46875 0.15625 0
0.5 0.15625 0
0.4375 0.15625 0
0.46875 0.15625 0
0.4375 0.1875 0
0.46875 0.1875 0
0.46875 0.15625 0
0.5 0.15625 0
0.46875 0.1875 0
0.5 0.1875 0
0.375 0.1875 0
0.40625 0.1875 0
0.375 0.21875 0
0.40625 0.21875 0
0.40625 0.1875 0
0.4375 0.1875 0
0.40625 0.21875 0
0.4375 0.21875 0
0.375 0.21875 0
0.40625 0.21875 0
0.375 0.25 0
0.40625 0.25 0
0.40625 0.21875 0
0.4375 0.21875 0
0.40625 0.25 0
0.4375 0.25 0
0.4375 0.1875 0
0.46875 0.1875 0
0.4375 0.21875 0
0.46875 0.21875 0
0.46875 0.1875 0
0.5 0.1875 0
0.46875 0.21875 0
0.5 0.21875 0
0.4375 0.21875 0
0.46875 0.21875 0
0.4375 0.25 0
0.46875 0.25 0
0.46875 0.21875 0
0.5 0.21875 0
0.46875 0.25 0
0.5 0.25 0
0 0.25 0
0.03125 0.25 0
0 0.28125 0
0.03125 0.28125 0
0.03125 0.25 0
0.0625 0.25 0
0.03125 0.28125 0
0.0625 0.28125 0
0 0.28125 0
0.03125 0.28125 0
0 0.3125 0
0.03125 0.3125 0
0.03125 0.28125 0
0.0625 0.28125 0
0.03125 0.3125 0
0.0625 0.3125 0
0.0625 0.25 0
0.09375 0.25 0
0.0625 0.28125 0
0.09375 0.28125 0
0.09375 0.25 0
0.125 0.25 0
0.09375 0.28125 0
0.125 0.28125 0
0.0625 0.28125 0
0.09375 0.28125 0
0.0625 0.3125 0
0.09375 0.3125 0
0.09375 0.28125 0
0.125 0.28125 0
0.09375 0.3125 0
0.125 0.3125 0
0 0.3125 0
0.03125 0.3125 0
0 0.34375 0
0.03125 0.34375 0
0.03125 0.3125 0
0.0625 0.3125 0
0.03125 0.34375 0
0.0625 0.34375 0
0 0.34375 0
0.03125 0.34375 0
0 0.375 0
0.03125 0.375 0
0.03125 0.34375 0
0.0625 0.34375 0
0.03125 0.375 0
0.0625 0.375 0
0.0625 0.3125 0
0.09375 0.3125 0
0.0625 0.34375 0
0.09375 0.34375 0
0.09375 0.3125 0
0.125 0.3125 0
0.09375 0.34375 0
0.125 0.34375 0
0.0625 0.34375 0
0.09375 0.34375 0
0.0625 0.375 0
0.09375 0.375 0
0.09375 0.34375 0
0.125 0.34375 0
0.09375 0.375 0
0.125 0.375 0
0.125 0.25 0
0.15625 0.25 0
0.125 0.28125 0
0.15625 0.28125 0
0.15625 0.25 0
0.1875 0.25 0
0.15625 0.28125 0
0.1875 0.28125 0
0.125 0.28125 0
0.15625 0.28125 0
0.125 0.3125 0
0.15625 0.3125 0
0.15625 0.28125 0
0.1875 0.28125 0
0.15625 0.3125 0
0.1875 0.3125 0
0.1875 0.25 0
0.21875 0.25 0
0.1875 0.28125 0
0.21875 0.28125 0
0.21875 0.25 0
0.25 0.25 0
0.21875 0.28125 0
0.25 0.28125 0
0.1875 0.28125 0
0.21875 0.28125 0
0.1875 0.3125 0
0.21875 0.3125 0
0.21875 0.28125 0
0.25 0.28125 0
0.21875 0.3125 0
0.25 0.3125 0
0.125 0.3125 0
0.15625 0.3125 0
0.125 0.34375 0
0.15625 0.34375 0
0.15625 0.3125 0
0.1875 0.3125 0
0.15625 0.34375 0
0.1875 0.34375 0
0.125 0.34375 0
[...]
POINT_DATA 4096
SCALARS u_x double 1
LOOKUP_TABLE default
1.16593e-05 1.38972e-05 -5.8945e-05 -0.000195397 1.38972e-05 8.19644e-06 -0.000195397 -0.000754498 -5.8945e-05 -0.000195397 -0.000146769 -0.000382614 -0.000195397 -0.000754498 -0.000382614 -0.00132691 8.19644e-06 -9.45791e-06 -0.000754498 -0.001534 -9.45791e-06 -2.88282e-05 -0.001534 -0.00240697 -0.000754498 -0.001534 -0.00132691 -0.00256046 -0.001534 -0.00240697 -0.00256046 -0.00392148 -0.000146769 -0.000382614 -0.000148478 -0.000487651 -0.000382614 -0.00132691 -0.000487651 -0.0016432 -0.000148478 -0.000487651 -3.92509e-05 -0.000550927 -0.000487651 -0.0016432 -0.000550927 -0.0017994 -0.00132691 -0.00256046 -0.0016432 -0.0031287 -0.00256046 -0.00392148 -0.0031287 -0.00474591 -0.0016432 -0.0031287 -0.0017994 -0.00342795 -0.0031287 -0.00474591 -0.00342795 -0.00518512 -2.88282e-05 -4.72665e-05 -0.00240697 -0.00328964 -4.72665e-05 -6.44075e-05 -0.00328964 -0.00414344 -0.00240697 -0.00328964 -0.00392148 -0.00529654 -0.00328964 -0.00414344 -0.00529654 -0.00662916 -6.44075e-05 -8.03752e-05 -0.00414344 -0.00495033 -8.03752e-05 -9.51983e-05 -0.00495033 -0.00569982 -0.00414344 -0.00495033 -0.00662916 -0.00788992 -0.00495033 -0.00569982 -0.00788992 -0.00906103 -0.00392148 -0.00529654 -0.00474591 -0.00637337 -0.00529654 -0.00662916 -0.00637337 -0.0079492 -0.00474591 -0.00637337 -0.00518512 -0.00694838 -0.00637337 -0.0079492 -0.00694838 -0.00865281 -0.00662916 -0.00788992 -0.0079492 -0.00943996 -0.00788992 -0.00906103 -0.00943996 -0.0108244 -0.0079492 -0.00943996 -0.00865281 -0.0102641 -0.00943996 -0.0108244 -0.0102641 -0.0117597 -3.92509e-05 -0.000550927 0.00018282 -0.000609636 -0.000550927 -0.0017994 -0.000609636 -0.0018928 0.00018282 -0.000609636 0.000516841 -0.000682517 -0.000609636 -0.0018928 -0.000682517 -0.00197787 -0.0017994 -0.00342795 -0.0018928 -0.00362467 -0.00342795 -0.00518512 -0.00362467 -0.00548014 -0.0018928 -0.00362467 -0.00197787 -0.00381272 -0.00362467 -0.00548014 -0.00381272 -0.00576366 0.000516841 -0.000682517 0.000964744 -0.000776671 -0.000682517 -0.00197787 -0.000776671 -0.00207684 0.000964744 -0.000776671 0.00153135 -0.000894807 -0.000776671 -0.00207684 -0.000894807 -0.00219741 -0.00197787 -0.00381272 -0.00207684 -0.0040325 -0.00381272 -0.00576366 -0.0040325 -0.00609335 -0.00207684 -0.0040325 -0.00219741 -0.00429932 -0.0040325 -0.00609335 -0.00429932 -0.00649161 -0.00518512 -0.00694838 -0.00548014 -0.00734035 -0.00694838 -0.00865281 -0.00734035 -0.00913569 -0.00548014 -0.00734035 -0.00576366 -0.0077203 -0.00734035 -0.00913569 -0.0077203 -0.00960631 -0.00865281 -0.0102641 -0.00913569 -0.0108314 -0.0102641 -0.0117597 -0.0108314 -0.0124044 -0.00913569 -0.0108314 -0.00960631 -0.011386 -0.0108314 -0.0124044 -0.011386 -0.0130356 -0.00576366 -0.0077203 -0.00609335 -0.00816204 -0.0077203 -0.00960631 -0.00816204 -0.0101537 -0.00609335 -0.00816204 -0.00649161 -0.00869437 -0.00816204 -0.0101537 -0.00869437 -0.0108122 -0.00960631 -0.011386 -0.0101537 -0.0120312 -0.011386 -0.0130356 -0.0120312 -0.0137698 -0.0101537 -0.0120312 -0.0108122 -0.0128065 -0.0120312 -0.0137698 -0.0128065 -0.0146507 -9.51983e-05 -0.000108799 -0.00569982 -0.00638367 -0.000108799 -0.000121052 -0.00638367 -0.0069946 -0.00569982 -0.00638367 -0.00906103 -0.0101289 -0.00638367 -0.0069946 -0.0101289 -0.011082 -0.000121052 -0.000131823 -0.0069946 -0.00752604 -0.000131823 -0.000140983 -0.00752604 -0.00797225 -0.0069946 -0.00752604 -0.011082 -0.01191 -0.00752604 -0.00797225 -0.01191 -0.0126041 -0.00906103 -0.0101289 -0.0108244 -0.0120863 -0.0101289 -0.011082 -0.0120863 -0.0132117 -0.0108244 -0.0120863 -0.0117597 -0.0131223 -0.0120863 -0.0132117 -0.0131223 -0.014337 -0.011082 -0.01191 -0.0132117 -0.0141886 -0.01191 -0.0126041 -0.0141886 -0.0150067 -0.0132117 -0.0141886 -0.014337 -0.0153909 -0.0141886 -0.0150067 -0.0153909 -0.0162731 -0.000140983 -0.000148416 -0.00797225 -0.0083283 -0.000148416 -0.000154022 -0.0083283 -0.00859019 -0.00797225 -0.0083283 -0.0126041 -0.0131568 -0.0083283 -0.00859019 -0.0131568 -0.013562 -0.000154022 -0.000157719 -0.00859019 -0.00875483 -0.000157719 -0.000159442 -0.00875483 -0.00882006 -0.00859019 -0.00875483 -0.013562 -0.0138152 -0.00875483 -0.00882006 -0.0138152 -0.0139132 -0.0126041 -0.0131568 -0.0150067 -0.0156574 -0.0131568 -0.013562 -0.0156574 -0.0161337 -0.0150067 -0.0156574 -0.0162731 -0.0169745 -0.0156574 -0.0161337 -0.0169745 -0.0174878 -0.013562 -0.0138152 -0.0161337 -0.0164303 -0.0138152 -0.0139132 -0.0164303 -0.0165437 -0.0161337 -0.0164303 -0.0174878 -0.0178073 -0.0164303 -0.0165437 -0.0178073 -0.0179294 -0.0117597 -0.0131223 -0.0124044 -0.0138366 -0.0131223 -0.014337 -0.0138366 -0.0151129 -0.0124044 -0.0138366 -0.0130356 -0.0145366 -0.0138366 -0.0151129 -0.0145366 -0.0158733 -0.014337 -0.0153909 -0.0151129 -0.0162199 -0.0153909 -0.0162731 -0.0162199 -0.0171463 -0.0151129 -0.0162199 -0.0158733 -0.0170324 -0.0162199 -0.0171463 -0.0170324 -0.0180024 -0.0130356 -0.0145366 -0.0137698 -0.0153503 -0.0145366 -0.0158733 -0.0153503 -0.0167567 -0.0137698 -0.0153503 -0.0146507 -0.0163254 -0.0153503 -0.0167567 -0.0163254 -0.0178141 -0.0158733 -0.0170324 -0.0167567 -0.0179757 -0.0170324 -0.0180024 -0.0179757 -0.0189957 -0.0167567 -0.0179757 -0.0178141 -0.0191033 -0.0179757 -0.0189957 -0.0191033 -0.0201819 -0.0162731 -0.0169745 -0.0171463 -0.0178831 -0.0169745 -0.0174878 -0.0178831 -0.0184225 -0.0171463 -0.0178831 -0.0180024 -0.018774 -0.0178831 -0.0184225 -0.018774 -0.0193398 -0.0174878 -0.0178073 -0.0184225 -0.0187591 -0.0178073 -0.0179294 -0.0187591 -0.0188889 -0.0184225 -0.0187591 -0.0193398 -0.0196941 -0.0187591 -0.0188889 -0.0196941 -0.0198329 -0.0180024 -0.018774 -0.0189957 -0.0198075 -0.018774 -0.0193398 -0.0198075 -0.0204038 -0.0189957 -0.0198075 -0.0201819 -0.0210408 -0.0198075 -0.0204038 -0.0210408 -0.0216727 -0.0193398 -0.0196941 -0.0204038 -0.0207788 -0.0196941 -0.0198329 -0.0207788 -0.0209286 -0.0204038 -0.0207788 -0.0216727 -0.0220723 -0.0207788 -0.0209286 -0.0220723 -0.0222355 0.00153135 -0.000894807 0.00222377 -0.00103875 -0.000894807 -0.00219741 -0.00103875 -0.00234292 0.00222377 -0.00103875 0.00305117 -0.00121061 -0.00103875 -0.00234292 -0.00121061 -0.00251623 -0.00219741 -0.00429932 -0.00234292 -0.00462043 -0.00429932 -0.00649161 -0.00462043 -0.0069694 -0.00234292 -0.00462043 -0.00251623 -0.00500207 -0.00462043 -0.0069694 -0.00500207 -0.00753592 0.00305117 -0.00121061 0.0040247 -0.00141306 -0.00121061 -0.00251623 -0.00141306 -0.00272093 0.0040247 -0.00141306 0.00515771 -0.00164946 -0.00141306 -0.00272093 -0.00164946 -0.00296173 -0.00251623 -0.00500207 -0.00272093 -0.00545166 -0.00500207 -0.00753592 -0.00545166 -0.0082019 -0.00272093 -0.00545166 -0.00296173 -0.00597871 -0.00545166 -0.0082019 -0.00597871 -0.00898095 -0.00649161 -0.00869437 -0.0069694 -0.00933148 -0.00869437 -0.0108122 -0.00933148 -0.0115987 -0.0069694 -0.00933148 -0.00753592 -0.0100852 -0.00933148 -0.0115987 -0.0100852 -0.0125271 -0.0108122 -0.0128065 -0.0115987 -0.0137306 -0.0128065 -0.0146507 -0.0137306 -0.015699 -0.0115987 -0.0137306 -0.0125271 -0.014819 -0.0137306 -0.015699 -0.014819 -0.0169305 -0.00753592 -0.0100852 -0.0082019 -0.0109691 -0.0100852 -0.0125271 -0.0109691 -0.0136131 -0.0082019 -0.0109691 -0.00898095 -0.0120003 -0.0109691 -0.0136131 -0.0120003 -0.014876 -0.0125271 -0.014819 -0.0136131 -0.0160885 -0.014819 -0.0169305 -0.0160885 -0.018363 -0.0136131 -0.0160885 -0.014876 -0.0175599 -0.0160885 -0.018363 -0.0175599 -0.0200176 0.00515771 -0.00164946 0.00646602 -0.00192403 -0.00164946 -0.00296173 -0.00192403 -0.00324485 0.00646602 -0.00192403 0.00796831 -0.00224203 -0.00192403 -0.00324485 -0.00224203 -0.00357858 -0.00296173 -0.00597871 -0.00324485 -0.0065956 -0.00597871 -0.00898095 -0.0065956 -0.0098905 -0.00324485 -0.0065956 -0.00357858 -0.00731849 -0.0065956 -0.0098905 -0.00731849 -0.0109532 0.00796831 -0.00224203 0.00968668 -0.00261013 -0.00224203 -0.00357858 -0.00261013 -0.00397406 0.00968668 -0.00261013 0.0116474 -0.00303693 -0.00261013 -0.00397406 -0.00303693 -0.00444652 -0.00357858 -0.00731849 -0.00397406 -0.0081688 -0.00731849 -0.0109532 -0.0081688 -0.0121988 -0.00397406 -0.0081688 -0.00444652 -0.00917529 -0.0081688 -0.0121988 -0.00917529 -0.0136666 -0.00898095 -0.0120003 -0.0098905 -0.0132003 -0.0120003 -0.014876 -0.0132003 -0.0163402 -0.0098905 -0.0132003 -0.0109532 -0.0145967 -0.0132003 -0.0163402 -0.0145967 -0.0180362 -0.014876 -0.0175599 -0.0163402 -0.0192588 -0.0175599 -0.0200176 -0.0192588 -0.0219197 -0.0163402 -0.0192588 -0.0180362 -0.0212169 -0.0192588 -0.0219197 -0.0212169 -0.0241005 -0.0109532 -0.0145967 -0.0121988 -0.0162253 -0.0145967 -0.0180362 -0.0162253 -0.0200032 -0.0121988 -0.0162253 -0.0136666 -0.018133 -0.0162253 -0.0200032 -0.018133 -0.0222915 -0.0180362 -0.0212169 -0.0200032 -0.0234738 -0.0212169 -0.0241005 -0.0234738 -0.0265978 -0.0200032 -0.0234738 -0.0222915 -0.0260795 -0.0234738 -0.0265978 -0.0260795 -0.0294583 -0.0146507 -0.0163254 -0.015699 -0.0174835 -0.0163254 -0.0178141 -0.0174835 -0.0190677 -0.015699 -0.0174835 -0.0169305 -0.018841 -0.0174835 -0.0190677 -0.018841 -0.0205339 -0.0178141 -0.0191033 -0.0190677 -0.0204382 -0.0191033 -0.0201819 -0.0204382 -0.0215841 -0.0190677 -0.0204382 -0.0205339 -0.0219963 -0.0204382 -0.0215841 -0.0219963 -0.0232181 -0.0169305 -0.018841 -0.018363 -0.0204155 -0.018841 -0.0205339 -0.0204155 -0.0222299 -0.018363 -0.0204155 -0.0200176 -0.0222277 -0.0204155 -0.0222299 -0.0222277 -0.0241752 -0.0205339 -0.0219963 -0.0222299 -0.0237941 -0.0219963 -0.0232181 -0.0237941 -0.0250994 -0.0222299 -0.0237941 -0.0241752 -0.0258498 -0.0237941 -0.0250994 -0.0258498 -0.0272448 -0.0201819 -0.0210408 -0.0215841 -0.0224971 -0.0210408 -0.0216727 -0.0224971 -0.0231701 -0.0215841 -0.0224971 -0.0232181 -0.0241917 -0.0224971 -0.0231701 -0.0241917 -0.024911 -0.0216727 -0.0220723 -0.0231701 -0.0235982 -0.0220723 -0.0222355 -0.0235982 -0.0237773 -0.0231701 -0.0235982 -0.024911 -0.0253714 -0.0235982 -0.0237773 -0.0253714 -0.0255693 -0.0232181 -0.0241917 -0.0250994 -0.0261395 -0.0241917 -0.024911 -0.0261395 -0.0269096 -0.0250994 -0.0261395 -0.0272448 -0.028356 -0.0261395 -0.0269096 -0.028356 -0.0291805 -0.024911 -0.0253714 -0.0269096 -0.027406 -0.0253714 -0.0255693 -0.027406 -0.0276254 -0.0269096 -0.027406 -0.0291805 -0.0297161 -0.027406 -0.0276254 -0.0297161 -0.0299602 -0.0200176 -0.0222277 -0.0219197 -0.0243021 -0.0222277 -0.0241752 -0.0243021 -0.0263927 -0.0219197 -0.0243021 -0.0241005 -0.0266677 -0.0243021 -0.0263927 -0.0266677 -0.0289086 -0.0241752 -0.0258498 -0.0263927 -0.0281841 -0.0258498 -0.0272448 -0.0281841 -0.0296728 -0.0263927 -0.0281841 -0.0289086 -0.0308201 -0.0281841 -0.0296728 -0.0308201 -0.0324033 -0.0241005 -0.0266677 -0.0265978 -0.0293592 -0.0266677 -0.0289086 -0.0293592 -0.0317531 -0.0265978 -0.0293592 -0.0294583 -0.0324175 -0.0293592 -0.0317531 -0.0324175 -0.0349606 -0.0289086 -0.0308201 -0.0317531 -0.033783 -0.0308201 -0.0324033 -0.033783 -0.0354568 -0.0317531 -0.033783 -0.0349606 -0.0371004 -0.033783 -0.0354568 -0.0371004 -0.0388545 -0.0272448 -0.028356 -0.0296728 -0.0308578 -0.028356 -0.0291805 -0.0308578 -0.0317389 -0.0296728 -0.0308578 -0.0324033 -0.0336618 -0.0308578 -0.0317389 -0.0336618 -0.0345995 -0.0291805 -0.0297161 -0.0317389 -0.032316 -0.0297161 -0.0299602 -0.032316 -0.0325879 -0.0317389 -0.032316 -0.0345995 -0.0352194 -0.032316 -0.0325879 -0.0352194 -0.0355219 -0.0324033 -0.0336618 -0.0354568 -0.0367847 -0.0336618 -0.0345995 -0.0367847 -0.0377761 -0.0354568 -0.0367847 -0.0388545 -0.040242 -0.0367847 -0.0377761 -0.040242 -0.0412797 -0.0345995 -0.0352194 -0.0377761 -0.038438 -0.0352194 -0.0355219 -0.038438 -0.0387737 -0.0377761 -0.038438 -0.0412797 -0.0419804 -0.038438 -0.0387737 -0.0419804 -0.042351 -0.000159442 -0.000159147 -0.00882006 -0.0087847 -0.000159147 -0.000156808 -0.0087847 -0.00864857 -0.00882006 -0.0087847 -0.0139132 -0.0138543 -0.0087847 -0.00864857 -0.0138543 -0.0136384 -0.000156808 -0.000152427 -0.00864857 -0.0084125 -0.000152427 -0.000146027 -0.0084125 -0.0080784 -0.00864857 -0.0084125 -0.0136384 -0.0132669 -0.0084125 -0.0080784 -0.0132669 -0.0127429 -0.0139132 -0.0138543 -0.0165437 -0.016472 -0.0138543 -0.0136384 -0.016472 -0.0162152 -0.0165437 -0.016472 -0.0179294 -0.0178522 -0.016472 -0.0162152 -0.0178522 -0.0175755 -0.0136384 -0.0132669 -0.0162152 -0.015775 -0.0132669 -0.0127429 -0.015775 -0.015155 -0.0162152 -0.015775 -0.0175755 -0.0171012 -0.015775 -0.015155 -0.0171012 -0.016433 -0.000146027 -0.000137659 -0.0080784 -0.00764925 -0.000137659 -0.000127395 -0.00764925 -0.00712916 -0.0080784 -0.00764925 -0.0127429 -0.0120712 -0.00764925 -0.00712916 -0.0120712 -0.0112582 -0.000127395 -0.000115339 -0.00712916 -0.00652333 -0.000115339 -0.00010162 -0.00652333 -0.00583806 -0.00712916 -0.00652333 -0.0112582 -0.0103119 -0.00652333 -0.00583806 -0.0103119 -0.00924233 -0.0127429 -0.0120712 -0.015155 -0.0143608 -0.0120712 -0.0112582 -0.0143608 -0.0133998 -0.015155 -0.0143608 -0.016433 -0.0155766 -0.0143608 -0.0133998 -0.0155766 -0.0145399 -0.0112582 -0.0103119 -0.0133998 -0.0122817 -0.0103119 -0.00924233 -0.0122817 -0.011018 -0.0133998 -0.0122817 -0.0145399 -0.0133331 -0.0122817 -0.011018 -0.0133331 -0.0119685 -0.0179294 -0.0178522 -0.0188889 -0.01881 -0.0178522 -0.0175755 -0.01881 -0.0185221 -0.0188889 -0.01881 -0.0198329 -0.0197541 -0.01881 -0.0185221 -0.0197541 -0.0194571 -0.0175755 -0.0171012 -0.0185221 -0.0180268 -0.0171012 -0.016433 -0.0180268 -0.0173277 -0.0185221 -0.0180268 -0.0194571 -0.0189435 -0.0180268 -0.0173277 -0.0189435 -0.0182164 -0.0198329 -0.0197541 -0.0209286 -0.0208509 -0.0197541 -0.0194571 -0.0208509 -0.0205448 -0.0209286 -0.0208509 -0.0222355 -0.0221598 -0.0208509 -0.0205448 -0.0221598 -0.0218439 -0.0194571 -0.0189435 -0.0205448 -0.0200113 -0.0189435 -0.0182164 -0.0200113 -0.0192533 -0.0205448 -0.0200113 -0.0218439 -0.0212883 -0.0200113 -0.0192533 -0.0212883 -0.0204951 -0.016433 -0.0155766 -0.0173277 -0.0164306 -0.0155766 -0.0145399 -0.0164306 -0.0153434 -0.0173277 -0.0164306 -0.0182164 -0.0172812 -0.0164306 -0.0153434 -0.0172812 -0.0161457 -0.0145399 -0.0133331 -0.0153434 -0.0140762 -0.0133331 -0.0119685 -0.0140762 -0.0126417 -0.0153434 -0.0140762 -0.0161457 -0.01482 -0.0140762 -0.0126417 -0.01482 -0.0133167 -0.0182164 -0.0172812 -0.0192533 -0.0182756 -0.0172812 -0.0161457 -0.0182756 -0.0170854 -0.0192533 -0.0182756 -0.0204951 -0.0194685 -0.0182756 -0.0170854 -0.0194685 -0.0182148 -0.0161457 -0.01482 -0.0170854 -0.0156926 -0.01482 -0.0133167 -0.0156926 -0.0141097 -0.0170854 -0.0156926 -0.0182148 -0.0167433 -0.0156926 -0.0141097 -0.0167433 -0.0150665 -0.00010162 -8.634e-05 -0.00583806 -0.00508087 -8.634e-05 -6.97383e-05 -0.00508087 -0.00425967 -0.00583806 -0.00508087 -0.00924233 -0.00806124 -0.00508087 -0.00425967 -0.00806124 -0.00678184 -6.97383e-05 -5.11913e-05 -0.00425967 -0.00339032 -5.11913e-05 -3.38351e-05 -0.00339032 -0.00246932 -0.00425967 -0.00339032 -0.00678184 -0.00542757 -0.00339032 -0.00246932 -0.00542757 -0.004003 -0.00924233 -0.00806124 -0.011018 -0.00962277 -0.00806124 -0.00678184 -0.00962277 -0.00811186 -0.011018 -0.00962277 -0.0119685 -0.0104611 -0.00962277 -0.00811186 -0.0104611 -0.00882798 -0.00678184 -0.00542757 -0.00811186 -0.00651219 -0.00542757 -0.004003 -0.00651219 -0.00483299 -0.00811186 -0.00651219 -0.00882798 -0.00709762 -0.00651219 -0.00483299 -0.00709762 -0.00528068 -3.38351e-05 -1.39832e-05 -0.00246932 -0.00165638 -1.39832e-05 7.40961e-05 -0.00165638 -0.000350624 -0.00246932 -0.00165638 -0.004003 -0.00270665 -0.00165638 -0.000350624 -0.00270665 -0.000886338 7.40961e-05 -4.64346e-05 -0.000350624 -0.00220167 -4.64346e-05 0.0168822 -0.00220167 0.015021 -0.000350624 -0.00220167 -0.000886338 -0.00248732 -0.00220167 0.015021 -0.00248732 0.015831 -0.004003 -0.00270665 -0.00483299 -0.00328136 -0.00270665 -0.000886338 -0.00328136 -0.00120016 -0.00483299 -0.00328136 -0.00528068 -0.0035875 -0.00328136 -0.00120016 -0.0035875 -0.00136199 -0.000886338 -0.00248732 -0.00120016 -0.00264015 -0.00248732 0.015831 -0.00264015 0.0157836 -0.00120016 -0.00264015 -0.00136199 -0.00270682 -0.00264015 0.0157836 -0.00270682 0.0158849 -0.0119685 -0.0104611 -0.0126417 -0.0110555 -0.0104611 -0.00882798 -0.0110555 -0.00933516 -0.0126417 -0.0110555 -0.0133167 -0.0116516 -0.0110555 -0.00933516 -0.0116516 -0.00984308 -0.00882798 -0.00709762 -0.00933516 -0.00751006 -0.00709762 -0.00528068 -0.00751006 -0.00559161 -0.00933516 -0.00751006 -0.00984308 -0.0079214 -0.00751006 -0.00559161 -0.0079214 -0.00589915 -0.0133167 -0.0116516 -0.0141097 -0.0123529 -0.0116516 -0.00984308 -0.0123529 -0.0104409 -0.0141097 -0.0123529 -0.0150665 -0.0132004 -0.0123529 -0.0104409 -0.0132004 -0.0111647 -0.00984308 -0.0079214 -0.0104409 -0.00840562 -0.0079214 -0.00589915 -0.00840562 -0.00626134 -0.0104409 -0.00840562 -0.0111647 -0.00899287 -0.00840562 -0.00626134 -0.00899287 -0.00670172 -0.00528068 -0.0035875 -0.00559161 -0.00379488 -0.0035875 -0.00136199 -0.00379488 -0.00145962 -0.00559161 -0.00379488 -0.00589915 -0.00399878 -0.00379488 -0.00145962 -0.00399878 -0.00155214 -0.00136199 -0.00270682 -0.00145962 -0.00276576 -0.00270682 0.0158849 -0.00276576 0.0161178 -0.00145962 -0.00276576 -0.00155214 -0.00284223 -0.00276576 0.0161178 -0.00284223 0.0164611 -0.00589915 -0.00399878 -0.00626134 -0.00424024 -0.00399878 -0.00155214 -0.00424024 -0.00166191 -0.00626134 -0.00424024 -0.00670172 -0.00453532 -0.00424024 -0.00166191 -0.00453532 -0.00179684 -0.00155214 -0.00284223 -0.00166191 -0.00294139 -0.00284223 0.0164611 -0.00294139 0.0169212 -0.00166191 -0.00294139 -0.00179684 -0.00306618 -0.00294139 0.0169212 -0.00306618 0.0175027 -0.0222355 -0.0221598 -0.0237773 -0.0237048 -0.0221598 -0.0218439 -0.0237048 -0.0233789 -0.0237773 -0.0237048 -0.0255693 -0.0255016 -0.0237048 -0.0233789 -0.0255016 -0.025166 -0.0218439 -0.0212883 -0.0233789 -0.0227992 -0.0212883 -0.0204951 -0.0227992 -0.0219669 -0.0233789 -0.0227992 -0.025166 -0.0245613 -0.0227992 -0.0219669 -0.0245613 -0.023687 -0.0255693 -0.0255016 -0.0276254 -0.0275648 -0.0255016 -0.025166 -0.0275648 -0.0272212 -0.0276254 -0.0275648 -0.0299602 -0.0299097 -0.0275648 -0.0272212 -0.0299097 -0.0295607 -0.025166 -0.0245613 -0.0272212 -0.0265917 -0.0245613 -0.023687 -0.0265917 -0.0256742 -0.0272212 -0.0265917 -0.0295607 -0.0289088 -0.0265917 -0.0256742 -0.0289088 -0.0279491 -0.0204951 -0.0194685 -0.0219669 -0.020885 -0.0194685 -0.0182148 -0.020885 -0.0195589 -0.0219669 -0.020885 -0.023687 -0.0225447 -0.020885 -0.0195589 -0.0225447 -0.0211379 -0.0182148 -0.0167433 -0.0195589 -0.0179968 -0.0167433 -0.0150665 -0.0179968 -0.0162105 -0.0195589 -0.0179968 -0.0211379 -0.0194736 -0.0179968 -0.0162105 -0.0194736 -0.0175623 -0.023687 -0.0225447 -0.0256742 -0.0244678 -0.0225447 -0.0211379 -0.0244678 -0.0229739 -0.0256742 -0.0244678 -0.0279491 -0.0266776 -0.0244678 -0.0229739 -0.0266776 -0.0250922 -0.0211379 -0.0194736 -0.0229739 -0.0211968 -0.0194736 -0.0175623 -0.0211968 -0.0191454 -0.0229739 -0.0211968 -0.0250922 -0.0231938 -0.0211968 -0.0191454 -0.0231938 -0.0209883 -0.0299602 -0.0299097 -0.0325879 -0.0325514 -0.0299097 -0.0295607 -0.0325514 -0.0322018 -0.0325879 -0.0325514 -0.0355219 -0.0355045 -0.0325514 -0.0322018 -0.0355045 -0.0351609 -0.0295607 -0.0289088 -0.0322018 -0.0315321 -0.0289088 -0.0279491 -0.0315321 -0.0305344 -0.0322018 -0.0315321 -0.0351609 -0.0344817 -0.0315321 -0.0305344 -0.0344817 -0.0334545 -0.0355219 -0.0355045 -0.0387737 -0.0387813 -0.0355045 -0.0351609 -0.0387813 -0.0384535 -0.0387737 -0.0387813 -0.042351 -0.042391 -0.0387813 -0.0384535 -0.042391 -0.0420917 -0.0351609 -0.0344817 -0.0384535 -0.0377773 -0.0344817 -0.0334545 -0.0377773 -0.0367349 -0.0384535 -0.0377773 -0.0420917 -0.0414365 -0.0377773 -0.0367349 -0.0414365 -0.0404007 -0.0279491 -0.0266776 -0.0305344 -0.0292003 -0.0266776 -0.0250922 -0.0292003 -0.0275227 -0.0305344 -0.0292003 -0.0334545 -0.0320652 -0.0292003 -0.0275227 -0.0320652 -0.0302998 -0.0250922 -0.0231938 -0.0275227 -0.0254975 -0.0231938 -0.0209883 -0.0254975 -0.0231258 -0.0275227 -0.0254975 -0.0302998 -0.028147 -0.0254975 -0.0231258 -0.028147 -0.0256009 -0.0334545 -0.0320652 -0.0367349 -0.0353046 -0.0320652 -0.0302998 -0.0353046 -0.