# vtk DataFile Version 3.0
#This file was generated by the deal.II library on 2026/1/5 at 14:19:39
ASCII
DATASET UNSTRUCTURED_GRID

POINTS 4096 double
0 0 0
0.03125 0 0
0 0.03125 0
0.03125 0.03125 0
0.03125 0 0
0.0625 0 0
0.03125 0.03125 0
0.0625 0.03125 0
0 0.03125 0
0.03125 0.03125 0
0 0.0625 0
0.03125 0.0625 0
0.03125 0.03125 0
0.0625 0.03125 0
0.03125 0.0625 0
0.0625 0.0625 0
0.0625 0 0
0.09375 0 0
0.0625 0.03125 0
0.09375 0.03125 0
0.09375 0 0
0.125 0 0
0.09375 0.03125 0
0.125 0.03125 0
0.0625 0.03125 0
0.09375 0.03125 0
0.0625 0.0625 0
0.09375 0.0625 0
0.09375 0.03125 0
0.125 0.03125 0
0.09375 0.0625 0
0.125 0.0625 0
0 0.0625 0
0.03125 0.0625 0
0 0.09375 0
0.03125 0.09375 0
0.03125 0.0625 0
0.0625 0.0625 0
0.03125 0.09375 0
0.0625 0.09375 0
0 0.09375 0
0.03125 0.09375 0
0 0.125 0
0.03125 0.125 0
0.03125 0.09375 0
0.0625 0.09375 0
0.03125 0.125 0
0.0625 0.125 0
0.0625 0.0625 0
0.09375 0.0625 0
0.0625 0.09375 0
0.09375 0.09375 0
0.09375 0.0625 0
0.125 0.0625 0
0.09375 0.09375 0
0.125 0.09375 0
0.0625 0.09375 0
0.09375 0.09375 0
0.0625 0.125 0
0.09375 0.125 0
0.09375 0.09375 0
0.125 0.09375 0
0.09375 0.125 0
0.125 0.125 0
0.125 0 0
0.15625 0 0
0.125 0.03125 0
0.15625 0.03125 0
0.15625 0 0
0.1875 0 0
0.15625 0.03125 0
0.1875 0.03125 0
0.125 0.03125 0
0.15625 0.03125 0
0.125 0.0625 0
0.15625 0.0625 0
0.15625 0.03125 0
0.1875 0.03125 0
0.15625 0.0625 0
0.1875 0.0625 0
0.1875 0 0
0.21875 0 0
0.1875 0.03125 0
0.21875 0.03125 0
0.21875 0 0
0.25 0 0
0.21875 0.03125 0
0.25 0.03125 0
0.1875 0.03125 0
0.21875 0.03125 0
0.1875 0.0625 0
0.21875 0.0625 0
0.21875 0.03125 0
0.25 0.03125 0
0.21875 0.0625 0
0.25 0.0625 0
0.125 0.0625 0
0.15625 0.0625 0
0.125 0.09375 0
0.15625 0.09375 0
0.15625 0.0625 0
0.1875 0.0625 0
0.15625 0.09375 0
0.1875 0.09375 0
0.125 0.09375 0
0.15625 0.09375 0
0.125 0.125 0
0.15625 0.125 0
0.15625 0.09375 0
0.1875 0.09375 0
0.15625 0.125 0
0.1875 0.125 0
0.1875 0.0625 0
0.21875 0.0625 0
0.1875 0.09375 0
0.21875 0.09375 0
0.21875 0.0625 0
0.25 0.0625 0
0.21875 0.09375 0
0.25 0.09375 0
0.1875 0.09375 0
0.21875 0.09375 0
0.1875 0.125 0
0.21875 0.125 0
0.21875 0.09375 0
0.25 0.09375 0
0.21875 0.125 0
0.25 0.125 0
0 0.125 0
0.03125 0.125 0
0 0.15625 0
0.03125 0.15625 0
0.03125 0.125 0
0.0625 0.125 0
0.03125 0.15625 0
0.0625 0.15625 0
0 0.15625 0
0.03125 0.15625 0
0 0.1875 0
0.03125 0.1875 0
0.03125 0.15625 0
0.0625 0.15625 0
0.03125 0.1875 0
0.0625 0.1875 0
0.0625 0.125 0
0.09375 0.125 0
0.0625 0.15625 0
0.09375 0.15625 0
0.09375 0.125 0
0.125 0.125 0
0.09375 0.15625 0
0.125 0.15625 0
0.0625 0.15625 0
0.09375 0.15625 0
0.0625 0.1875 0
0.09375 0.1875 0
0.09375 0.15625 0
0.125 0.15625 0
0.09375 0.1875 0
0.125 0.1875 0
0 0.1875 0
0.03125 0.1875 0
0 0.21875 0
0.03125 0.21875 0
0.03125 0.1875 0
0.0625 0.1875 0
0.03125 0.21875 0
0.0625 0.21875 0
0 0.21875 0
0.03125 0.21875 0
0 0.25 0
0.03125 0.25 0
0.03125 0.21875 0
0.0625 0.21875 0
0.03125 0.25 0
0.0625 0.25 0
0.0625 0.1875 0
0.09375 0.1875 0
0.0625 0.21875 0
0.09375 0.21875 0
0.09375 0.1875 0
0.125 0.1875 0
0.09375 0.21875 0
0.125 0.21875 0
0.0625 0.21875 0
0.09375 0.21875 0
0.0625 0.25 0
0.09375 0.25 0
0.09375 0.21875 0
0.125 0.21875 0
0.09375 0.25 0
0.125 0.25 0
0.125 0.125 0
0.15625 0.125 0
0.125 0.15625 0
0.15625 0.15625 0
0.15625 0.125 0
0.1875 0.125 0
0.15625 0.15625 0
0.1875 0.15625 0
0.125 0.15625 0
0.15625 0.15625 0
0.125 0.1875 0
0.15625 0.1875 0
0.15625 0.15625 0
0.1875 0.15625 0
0.15625 0.1875 0
0.1875 0.1875 0
0.1875 0.125 0
0.21875 0.125 0
0.1875 0.15625 0
0.21875 0.15625 0
0.21875 0.125 0
0.25 0.125 0
0.21875 0.15625 0
0.25 0.15625 0
0.1875 0.15625 0
0.21875 0.15625 0
0.1875 0.1875 0
0.21875 0.1875 0
0.21875 0.15625 0
0.25 0.15625 0
0.21875 0.1875 0
0.25 0.1875 0
0.125 0.1875 0
0.15625 0.1875 0
0.125 0.21875 0
0.15625 0.21875 0
0.15625 0.1875 0
0.1875 0.1875 0
0.15625 0.21875 0
0.1875 0.21875 0
0.125 0.21875 0
0.15625 0.21875 0
0.125 0.25 0
0.15625 0.25 0
0.15625 0.21875 0
0.1875 0.21875 0
0.15625 0.25 0
0.1875 0.25 0
0.1875 0.1875 0
0.21875 0.1875 0
0.1875 0.21875 0
0.21875 0.21875 0
0.21875 0.1875 0
0.25 0.1875 0
0.21875 0.21875 0
0.25 0.21875 0
0.1875 0.21875 0
0.21875 0.21875 0
0.1875 0.25 0
0.21875 0.25 0
0.21875 0.21875 0
0.25 0.21875 0
0.21875 0.25 0
0.25 0.25 0
0.25 0 0
0.28125 0 0
0.25 0.03125 0
0.28125 0.03125 0
0.28125 0 0
0.3125 0 0
0.28125 0.03125 0
0.3125 0.03125 0
0.25 0.03125 0
0.28125 0.03125 0
0.25 0.0625 0
0.28125 0.0625 0
0.28125 0.03125 0
0.3125 0.03125 0
0.28125 0.0625 0
0.3125 0.0625 0
0.3125 0 0
0.34375 0 0
0.3125 0.03125 0
0.34375 0.03125 0
0.34375 0 0
0.375 0 0
0.34375 0.03125 0
0.375 0.03125 0
0.3125 0.03125 0
0.34375 0.03125 0
0.3125 0.0625 0
0.34375 0.0625 0
0.34375 0.03125 0
0.375 0.03125 0
0.34375 0.0625 0
0.375 0.0625 0
0.25 0.0625 0
0.28125 0.0625 0
0.25 0.09375 0
0.28125 0.09375 0
0.28125 0.0625 0
0.3125 0.0625 0
0.28125 0.09375 0
0.3125 0.09375 0
0.25 0.09375 0
0.28125 0.09375 0
0.25 0.125 0
0.28125 0.125 0
0.28125 0.09375 0
0.3125 0.09375 0
0.28125 0.125 0
0.3125 0.125 0
0.3125 0.0625 0
0.34375 0.0625 0
0.3125 0.09375 0
0.34375 0.09375 0
0.34375 0.0625 0
0.375 0.0625 0
0.34375 0.09375 0
0.375 0.09375 0
0.3125 0.09375 0
0.34375 0.09375 0
0.3125 0.125 0
0.34375 0.125 0
0.34375 0.09375 0
0.375 0.09375 0
0.34375 0.125 0
0.375 0.125 0
0.375 0 0
0.40625 0 0
0.375 0.03125 0
0.40625 0.03125 0
0.40625 0 0
0.4375 0 0
0.40625 0.03125 0
0.4375 0.03125 0
0.375 0.03125 0
0.40625 0.03125 0
0.375 0.0625 0
0.40625 0.0625 0
0.40625 0.03125 0
0.4375 0.03125 0
0.40625 0.0625 0
0.4375 0.0625 0
0.4375 0 0
0.46875 0 0
0.4375 0.03125 0
0.46875 0.03125 0
0.46875 0 0
0.5 0 0
0.46875 0.03125 0
0.5 0.03125 0
0.4375 0.03125 0
0.46875 0.03125 0
0.4375 0.0625 0
0.46875 0.0625 0
0.46875 0.03125 0
0.5 0.03125 0
0.46875 0.0625 0
0.5 0.0625 0
0.375 0.0625 0
0.40625 0.0625 0
0.375 0.09375 0
0.40625 0.09375 0
0.40625 0.0625 0
0.4375 0.0625 0
0.40625 0.09375 0
0.4375 0.09375 0
0.375 0.09375 0
0.40625 0.09375 0
0.375 0.125 0
0.40625 0.125 0
0.40625 0.09375 0
0.4375 0.09375 0
0.40625 0.125 0
0.4375 0.125 0
0.4375 0.0625 0
0.46875 0.0625 0
0.4375 0.09375 0
0.46875 0.09375 0
0.46875 0.0625 0
0.5 0.0625 0
0.46875 0.09375 0
0.5 0.09375 0
0.4375 0.09375 0
0.46875 0.09375 0
0.4375 0.125 0
0.46875 0.125 0
0.46875 0.09375 0
0.5 0.09375 0
0.46875 0.125 0
0.5 0.125 0
0.25 0.125 0
0.28125 0.125 0
0.25 0.15625 0
0.28125 0.15625 0
0.28125 0.125 0
0.3125 0.125 0
0.28125 0.15625 0
0.3125 0.15625 0
0.25 0.15625 0
0.28125 0.15625 0
0.25 0.1875 0
0.28125 0.1875 0
0.28125 0.15625 0
0.3125 0.15625 0
0.28125 0.1875 0
0.3125 0.1875 0
0.3125 0.125 0
0.34375 0.125 0
0.3125 0.15625 0
0.34375 0.15625 0
0.34375 0.125 0
0.375 0.125 0
0.34375 0.15625 0
0.375 0.15625 0
0.3125 0.15625 0
0.34375 0.15625 0
0.3125 0.1875 0
0.34375 0.1875 0
0.34375 0.15625 0
0.375 0.15625 0
0.34375 0.1875 0
0.375 0.1875 0
0.25 0.1875 0
0.28125 0.1875 0
0.25 0.21875 0
0.28125 0.21875 0
0.28125 0.1875 0
0.3125 0.1875 0
0.28125 0.21875 0
0.3125 0.21875 0
0.25 0.21875 0
0.28125 0.21875 0
0.25 0.25 0
0.28125 0.25 0
0.28125 0.21875 0
0.3125 0.21875 0
0.28125 0.25 0
0.3125 0.25 0
0.3125 0.1875 0
0.34375 0.1875 0
0.3125 0.21875 0
0.34375 0.21875 0
0.34375 0.1875 0
0.375 0.1875 0
0.34375 0.21875 0
0.375 0.21875 0
0.3125 0.21875 0
0.34375 0.21875 0
0.3125 0.25 0
0.34375 0.25 0
0.34375 0.21875 0
0.375 0.21875 0
0.34375 0.25 0
0.375 0.25 0
0.375 0.125 0
0.40625 0.125 0
0.375 0.15625 0
0.40625 0.15625 0
0.40625 0.125 0
0.4375 0.125 0
0.40625 0.15625 0
0.4375 0.15625 0
0.375 0.15625 0
0.40625 0.15625 0
0.375 0.1875 0
0.40625 0.1875 0
0.40625 0.15625 0
0.4375 0.15625 0
0.40625 0.1875 0
0.4375 0.1875 0
0.4375 0.125 0
0.46875 0.125 0
0.4375 0.15625 0
0.46875 0.15625 0
0.46875 0.125 0
0.5 0.125 0
0.46875 0.15625 0
0.5 0.15625 0
0.4375 0.15625 0
0.46875 0.15625 0
0.4375 0.1875 0
0.46875 0.1875 0
0.46875 0.15625 0
0.5 0.15625 0
0.46875 0.1875 0
0.5 0.1875 0
0.375 0.1875 0
0.40625 0.1875 0
0.375 0.21875 0
0.40625 0.21875 0
0.40625 0.1875 0
0.4375 0.1875 0
0.40625 0.21875 0
0.4375 0.21875 0
0.375 0.21875 0
0.40625 0.21875 0
0.375 0.25 0
0.40625 0.25 0
0.40625 0.21875 0
0.4375 0.21875 0
0.40625 0.25 0
0.4375 0.25 0
0.4375 0.1875 0
0.46875 0.1875 0
0.4375 0.21875 0
0.46875 0.21875 0
0.46875 0.1875 0
0.5 0.1875 0
0.46875 0.21875 0
0.5 0.21875 0
0.4375 0.21875 0
0.46875 0.21875 0
0.4375 0.25 0
0.46875 0.25 0
0.46875 0.21875 0
0.5 0.21875 0
0.46875 0.25 0
0.5 0.25 0
0 0.25 0
0.03125 0.25 0
0 0.28125 0
0.03125 0.28125 0
0.03125 0.25 0
0.0625 0.25 0
0.03125 0.28125 0
0.0625 0.28125 0
0 0.28125 0
0.03125 0.28125 0
0 0.3125 0
0.03125 0.3125 0
0.03125 0.28125 0
0.0625 0.28125 0
0.03125 0.3125 0
0.0625 0.3125 0
0.0625 0.25 0
0.09375 0.25 0
0.0625 0.28125 0
0.09375 0.28125 0
0.09375 0.25 0
0.125 0.25 0
0.09375 0.28125 0
0.125 0.28125 0
0.0625 0.28125 0
0.09375 0.28125 0
0.0625 0.3125 0
0.09375 0.3125 0
0.09375 0.28125 0
0.125 0.28125 0
0.09375 0.3125 0
0.125 0.3125 0
0 0.3125 0
0.03125 0.3125 0
0 0.34375 0
0.03125 0.34375 0
0.03125 0.3125 0
0.0625 0.3125 0
0.03125 0.34375 0
0.0625 0.34375 0
0 0.34375 0
0.03125 0.34375 0
0 0.375 0
0.03125 0.375 0
0.03125 0.34375 0
0.0625 0.34375 0
0.03125 0.375 0
0.0625 0.375 0
0.0625 0.3125 0
0.09375 0.3125 0
0.0625 0.34375 0
0.09375 0.34375 0
0.09375 0.3125 0
0.125 0.3125 0
0.09375 0.34375 0
0.125 0.34375 0
0.0625 0.34375 0
0.09375 0.34375 0
0.0625 0.375 0
0.09375 0.375 0
0.09375 0.34375 0
0.125 0.34375 0
0.09375 0.375 0
0.125 0.375 0
0.125 0.25 0
0.15625 0.25 0
0.125 0.28125 0
0.15625 0.28125 0
0.15625 0.25 0
0.1875 0.25 0
0.15625 0.28125 0
0.1875 0.28125 0
0.125 0.28125 0
0.15625 0.28125 0
0.125 0.3125 0
0.15625 0.3125 0
0.15625 0.28125 0
0.1875 0.28125 0
0.15625 0.3125 0
0.1875 0.3125 0
0.1875 0.25 0
0.21875 0.25 0
0.1875 0.28125 0
0.21875 0.28125 0
0.21875 0.25 0
0.25 0.25 0
0.21875 0.28125 0
0.25 0.28125 0
0.1875 0.28125 0
0.21875 0.28125 0
0.1875 0.3125 0
0.21875 0.3125 0
0.21875 0.28125 0
0.25 0.28125 0
0.21875 0.3125 0
0.25 0.3125 0
0.125 0.3125 0
0.15625 0.3125 0
0.125 0.34375 0
0.15625 0.34375 0
0.15625 0.3125 0
0.1875 0.3125 0
0.15625 0.34375 0
0.1875 0.34375 0
0.125 0.34375 0
[...]
POINT_DATA 4096
SCALARS u_x double 1
LOOKUP_TABLE default
-8.16497e-06 1.38487e-05 -5.60113e-05 -3.86902e-05 1.38487e-05 2.32698e-05 -3.86902e-05 -0.000336693 -5.60113e-05 -3.86902e-05 -0.000180543 -0.000198364 -3.86902e-05 -0.000336693 -0.000198364 -0.000909524 2.32698e-05 2.19641e-05 -0.000336693 -0.000922096 2.19641e-05 1.40921e-05 -0.000922096 -0.00176279 -0.000336693 -0.000922096 -0.000909524 -0.00206168 -0.000922096 -0.00176279 -0.00206168 -0.00361263 -0.000180543 -0.000198364 -0.000325258 -0.000358374 -0.000198364 -0.000909524 -0.000358374 -0.00148745 -0.000325258 -0.000358374 -0.000442287 -0.00049424 -0.000358374 -0.00148745 -0.00049424 -0.00199367 -0.000909524 -0.00206168 -0.00148745 -0.00317027 -0.00206168 -0.00361263 -0.00317027 -0.00534361 -0.00148745 -0.00317027 -0.00199367 -0.00415193 -0.00317027 -0.00534361 -0.00415193 -0.0068726 1.40921e-05 3.16722e-06 -0.00176279 -0.00278349 3.16722e-06 -8.86052e-06 -0.00278349 -0.0039114 -0.00176279 -0.00278349 -0.00361263 -0.0054487 -0.00278349 -0.0039114 -0.0054487 -0.00745922 -8.86052e-06 -2.09857e-05 -0.0039114 -0.00508391 -2.09857e-05 -3.26854e-05 -0.00508391 -0.00625094 -0.0039114 -0.00508391 -0.00745922 -0.00954312 -0.00508391 -0.00625094 -0.00954312 -0.0116159 -0.00361263 -0.0054487 -0.00534361 -0.00785977 -0.0054487 -0.00745922 -0.00785977 -0.0105847 -0.00534361 -0.00785977 -0.0068726 -0.00997177 -0.00785977 -0.0105847 -0.00997177 -0.0132947 -0.00745922 -0.00954312 -0.0105847 -0.0133936 -0.00954312 -0.0116159 -0.0133936 -0.0161798 -0.0105847 -0.0133936 -0.0132947 -0.0166997 -0.0133936 -0.0161798 -0.0166997 -0.0200653 -0.000442287 -0.00049424 -0.000505309 -0.000608881 -0.00049424 -0.00199367 -0.000608881 -0.00241839 -0.000505309 -0.000608881 -0.000499894 -0.000711241 -0.000608881 -0.00241839 -0.000711241 -0.00277691 -0.00199367 -0.00415193 -0.00241839 -0.00499358 -0.00415193 -0.0068726 -0.00499358 -0.00819591 -0.00241839 -0.00499358 -0.00277691 -0.00572043 -0.00499358 -0.00819591 -0.00572043 -0.00935227 -0.000499894 -0.000711241 -0.000417264 -0.000810341 -0.000711241 -0.00277691 -0.000810341 -0.0030911 -0.000417264 -0.000810341 -0.00025131 -0.000914139 -0.000810341 -0.0030911 -0.000914139 -0.00338284 -0.00277691 -0.00572043 -0.0030911 -0.00637092 -0.00572043 -0.00935227 -0.00637092 -0.0103977 -0.0030911 -0.00637092 -0.00338284 -0.00698535 -0.00637092 -0.0103977 -0.00698535 -0.0113914 -0.0068726 -0.00997177 -0.00819591 -0.0118055 -0.00997177 -0.0132947 -0.0118055 -0.0156462 -0.00819591 -0.0118055 -0.00935227 -0.0134202 -0.0118055 -0.0156462 -0.0134202 -0.0177251 -0.0132947 -0.0166997 -0.0156462 -0.0195609 -0.0166997 -0.0200653 -0.0195609 -0.0234169 -0.0156462 -0.0195609 -0.0177251 -0.0220954 -0.0195609 -0.0234169 -0.0220954 -0.026388 -0.00935227 -0.0134202 -0.0103977 -0.0148918 -0.0134202 -0.0177251 -0.0148918 -0.0196309 -0.0103977 -0.0148918 -0.0113914 -0.0162993 -0.0148918 -0.0196309 -0.0162993 -0.0214628 -0.0177251 -0.0220954 -0.0196309 -0.0244282 -0.0220954 -0.026388 -0.0244282 -0.029131 -0.0196309 -0.0244282 -0.0214628 -0.0266799 -0.0244282 -0.029131 -0.0266799 -0.0317885 -3.26854e-05 -4.37016e-05 -0.00625094 -0.00737344 -4.37016e-05 -5.39077e-05 -0.00737344 -0.00842108 -0.00625094 -0.00737344 -0.0116159 -0.0136093 -0.00737344 -0.00842108 -0.0136093 -0.0154688 -5.39077e-05 -6.32254e-05 -0.00842108 -0.00936978 -6.32254e-05 -7.15723e-05 -0.00936978 -0.0101996 -0.00842108 -0.00936978 -0.0154688 -0.0171504 -0.00936978 -0.0101996 -0.0171504 -0.018618 -0.0116159 -0.0136093 -0.0161798 -0.0188552 -0.0136093 -0.0154688 -0.0188552 -0.0213478 -0.0161798 -0.0188552 -0.0200653 -0.0232897 -0.0188552 -0.0213478 -0.0232897 -0.0262894 -0.0154688 -0.0171504 -0.0213478 -0.0235988 -0.0171504 -0.018618 -0.0235988 -0.0255595 -0.0213478 -0.0235988 -0.0262894 -0.0289953 -0.0235988 -0.0255595 -0.0289953 -0.0313494 -7.15723e-05 -7.88389e-05 -0.0101996 -0.0108935 -7.88389e-05 -8.48844e-05 -0.0108935 -0.011436 -0.0101996 -0.0108935 -0.018618 -0.0198405 -0.0108935 -0.011436 -0.0198405 -0.0207906 -8.48844e-05 -8.9536e-05 -0.011436 -0.0118134 -8.9536e-05 -9.25962e-05 -0.0118134 -0.0120132 -0.011436 -0.0118134 -0.0207906 -0.0214445 -0.0118134 -0.0120132 -0.0214445 -0.0217813 -0.018618 -0.0198405 -0.0255595 -0.0271883 -0.0198405 -0.0207906 -0.0271883 -0.028449 -0.0255595 -0.0271883 -0.0313494 -0.0333026 -0.0271883 -0.028449 -0.0333026 -0.0348118 -0.0207906 -0.0214445 -0.028449 -0.0293102 -0.0214445 -0.0217813 -0.0293102 -0.0297451 -0.028449 -0.0293102 -0.0348118 -0.03584 -0.0293102 -0.0297451 -0.03584 -0.0363554 -0.0200653 -0.0232897 -0.0234169 -0.0271033 -0.0232897 -0.0262894 -0.0271033 -0.0305284 -0.0234169 -0.0271033 -0.026388 -0.0304849 -0.0271033 -0.0305284 -0.0304849 -0.0342888 -0.0262894 -0.0289953 -0.0305284 -0.0336162 -0.0289953 -0.0313494 -0.0336162 -0.0363025 -0.0305284 -0.0336162 -0.0342888 -0.0377192 -0.0336162 -0.0363025 -0.0377192 -0.0407077 -0.026388 -0.0304849 -0.029131 -0.0336152 -0.0304849 -0.0342888 -0.0336152 -0.0377794 -0.029131 -0.0336152 -0.0317885 -0.0366588 -0.0336152 -0.0377794 -0.0366588 -0.0411863 -0.0342888 -0.0377192 -0.0377794 -0.0415399 -0.0377192 -0.0407077 -0.0415399 -0.0448255 -0.0377794 -0.0415399 -0.0411863 -0.0452852 -0.0415399 -0.0448255 -0.0452852 -0.0488823 -0.0313494 -0.0333026 -0.0363025 -0.0385325 -0.0333026 -0.0348118 -0.0385325 -0.040258 -0.0363025 -0.0385325 -0.0407077 -0.0431951 -0.0385325 -0.040258 -0.0431951 -0.0451291 -0.0348118 -0.03584 -0.040258 -0.0414371 -0.03584 -0.0363554 -0.0414371 -0.0420335 -0.040258 -0.0414371 -0.0451291 -0.0464629 -0.0414371 -0.0420335 -0.0464629 -0.0471557 -0.0407077 -0.0431951 -0.0448255 -0.0475737 -0.0431951 -0.0451291 -0.0475737 -0.0497283 -0.0448255 -0.0475737 -0.0488823 -0.0519129 -0.0475737 -0.0497283 -0.0519129 -0.0543169 -0.0451291 -0.0464629 -0.0497283 -0.0512379 -0.0464629 -0.0471557 -0.0512379 -0.0520558 -0.0497283 -0.0512379 -0.0543169 -0.0560379 -0.0512379 -0.0520558 -0.0560379 -0.0570223 -0.00025131 -0.000914139 3.20891e-06 -0.00102935 -0.000914139 -0.00338284 -0.00102935 -0.0036716 3.20891e-06 -0.00102935 0.000351647 -0.00116162 -0.00102935 -0.0036716 -0.00116162 -0.00397385 -0.00338284 -0.00698535 -0.0036716 -0.00760072 -0.00698535 -0.0113914 -0.00760072 -0.0123887 -0.0036716 -0.00760072 -0.00397385 -0.00824911 -0.00760072 -0.0123887 -0.00824911 -0.0134381 0.000351647 -0.00116162 0.000800209 -0.00131584 -0.00116162 -0.00397385 -0.00131584 -0.00430336 0.000800209 -0.00131584 0.00135633 -0.00149645 -0.00131584 -0.00430336 -0.00149645 -0.00467196 -0.00397385 -0.00824911 -0.00430336 -0.00895778 -0.00824911 -0.0134381 -0.00895778 -0.0145811 -0.00430336 -0.00895778 -0.00467196 -0.00975032 -0.00895778 -0.0145811 -0.00975032 -0.0158531 -0.0113914 -0.0162993 -0.0123887 -0.0177163 -0.0162993 -0.0214628 -0.0177163 -0.0233123 -0.0123887 -0.0177163 -0.0134381 -0.0192073 -0.0177163 -0.0233123 -0.0192073 -0.0252591 -0.0214628 -0.0266799 -0.0233123 -0.0289597 -0.0266799 -0.0317885 -0.0289597 -0.0344867 -0.0233123 -0.0289597 -0.0252591 -0.031361 -0.0289597 -0.0344867 -0.031361 -0.037332 -0.0134381 -0.0192073 -0.0145811 -0.0208273 -0.0192073 -0.0252591 -0.0208273 -0.0273701 -0.0145811 -0.0208273 -0.0158531 -0.0226228 -0.0208273 -0.0273701 -0.0226228 -0.0297011 -0.0252591 -0.031361 -0.0273701 -0.0339613 -0.031361 -0.037332 -0.0339613 -0.0404107 -0.0273701 -0.0339613 -0.0297011 -0.0368233 -0.0339613 -0.0404107 -0.0368233 -0.0437905 0.00135633 -0.00149645 0.00202902 -0.0017079 -0.00149645 -0.00467196 -0.0017079 -0.00509059 0.00202902 -0.0017079 0.00282905 -0.00195501 -0.0017079 -0.00509059 -0.00195501 -0.00557047 -0.00467196 -0.00975032 -0.00509059 -0.0106484 -0.00975032 -0.0158531 -0.0106484 -0.0172863 -0.00509059 -0.0106484 -0.00557047 -0.0116737 -0.0106484 -0.0172863 -0.0116737 -0.018912 0.00282905 -0.00195501 0.00376942 -0.0022435 -0.00195501 -0.00557047 -0.0022435 -0.00612444 0.00376942 -0.0022435 0.00486575 -0.00258057 -0.0022435 -0.00612444 -0.00258057 -0.00676846 -0.00557047 -0.0116737 -0.00612444 -0.0128506 -0.0116737 -0.018912 -0.0128506 -0.0207635 -0.00612444 -0.0128506 -0.00676846 -0.0142082 -0.0128506 -0.0207635 -0.0142082 -0.0228792 -0.0158531 -0.0226228 -0.0172863 -0.0246349 -0.0226228 -0.0297011 -0.0246349 -0.0322994 -0.0172863 -0.0246349 -0.018912 -0.0269018 -0.0246349 -0.0322994 -0.0269018 -0.0352068 -0.0297011 -0.0368233 -0.0322994 -0.0399978 -0.0368233 -0.0437905 -0.0399978 -0.047523 -0.0322994 -0.0399978 -0.0352068 -0.0435264 -0.0399978 -0.047523 -0.0435264 -0.051646 -0.018912 -0.0269018 -0.0207635 -0.0294623 -0.0269018 -0.0352068 -0.0294623 -0.0384624 -0.0207635 -0.0294623 -0.0228792 -0.0323581 -0.0294623 -0.0384624 -0.0323581 -0.0421047 -0.0352068 -0.0435264 -0.0384624 -0.0474436 -0.0435264 -0.051646 -0.0474436 -0.0561851 -0.0384624 -0.0474436 -0.0421047 -0.0517777 -0.0474436 -0.0561851 -0.0517777 -0.0611523 -0.0317885 -0.0366588 -0.0344867 -0.0397585 -0.0366588 -0.0411863 -0.0397585 -0.0446684 -0.0344867 -0.0397585 -0.037332 -0.0430328 -0.0397585 -0.0446684 -0.0430328 -0.0483555 -0.0411863 -0.0452852 -0.0446684 -0.0491294 -0.0452852 -0.0488823 -0.0491294 -0.0530676 -0.0446684 -0.0491294 -0.0483555 -0.0532132 -0.0491294 -0.0530676 -0.0532132 -0.0575323 -0.037332 -0.0430328 -0.0404107 -0.0465756 -0.0430328 -0.0483555 -0.0465756 -0.0523481 -0.0404107 -0.0465756 -0.0437905 -0.0504578 -0.0465756 -0.0523481 -0.0504578 -0.0567194 -0.0483555 -0.0532132 -0.0523481 -0.0576434 -0.0532132 -0.0575323 -0.0576434 -0.0623899 -0.0523481 -0.0576434 -0.0567194 -0.0624948 -0.0576434 -0.0623899 -0.0624948 -0.0677173 -0.0488823 -0.0519129 -0.0530676 -0.0564162 -0.0519129 -0.0543169 -0.0564162 -0.0591122 -0.0530676 -0.0564162 -0.0575323 -0.0612456 -0.0564162 -0.0591122 -0.0612456 -0.064287 -0.0543169 -0.0560379 -0.0591122 -0.0610933 -0.0560379 -0.0570223 -0.0610933 -0.062298 -0.0591122 -0.0610933 -0.064287 -0.066589 -0.0610933 -0.062298 -0.066589 -0.068081 -0.0575323 -0.0612456 -0.0623899 -0.0665215 -0.0612456 -0.064287 -0.0665215 -0.0699708 -0.0623899 -0.0665215 -0.0677173 -0.0723242 -0.0665215 -0.0699708 -0.0723242 -0.0762492 -0.064287 -0.066589 -0.0699708 -0.0726653 -0.066589 -0.068081 -0.0726653 -0.0745251 -0.0699708 -0.0726653 -0.0762492 -0.0794171 -0.0726653 -0.0745251 -0.0794171 -0.0817388 -0.0437905 -0.0504578 -0.047523 -0.0547297 -0.0504578 -0.0567194 -0.0547297 -0.0615169 -0.047523 -0.0547297 -0.051646 -0.0594226 -0.0547297 -0.0615169 -0.0594226 -0.0667632 -0.0567194 -0.0624948 -0.0615169 -0.0678115 -0.0624948 -0.0677173 -0.0678115 -0.0735552 -0.0615169 -0.0678115 -0.0667632 -0.0736063 -0.0678115 -0.0735552 -0.0736063 -0.0799063 -0.051646 -0.0594226 -0.0561851 -0.0645492 -0.0594226 -0.0667632 -0.0645492 -0.0724549 -0.0561851 -0.0645492 -0.0611523 -0.0700999 -0.0645492 -0.0724549 -0.0700999 -0.0785569 -0.0667632 -0.0736063 -0.0724549 -0.0798575 -0.0736063 -0.0799063 -0.0798575 -0.0867297 -0.0724549 -0.0798575 -0.0785569 -0.0865005 -0.0798575 -0.0867297 -0.0865005 -0.0939284 -0.0677173 -0.0723242 -0.0735552 -0.0786926 -0.0723242 -0.0762492 -0.0786926 -0.0831624 -0.0735552 -0.0786926 -0.0799063 -0.0856205 -0.0786926 -0.0831624 -0.0856205 -0.0906976 -0.0762492 -0.0794171 -0.0831624 -0.0868895 -0.0794171 -0.0817388 -0.0868895 -0.0897789 -0.0831624 -0.0868895 -0.0906976 -0.0950681 -0.0868895 -0.0897789 -0.0950681 -0.098636 -0.0799063 -0.0856205 -0.0867297 -0.0930473 -0.0856205 -0.0906976 -0.0930473 -0.0987763 -0.0867297 -0.0930473 -0.0939284 -0.100842 -0.0930473 -0.0987763 -0.100842 -0.107233 -0.0906976 -0.0950681 -0.0987763 -0.10386 -0.0950681 -0.098636 -0.10386 -0.10821 -0.0987763 -0.10386 -0.107233 -0.113067 -0.10386 -0.10821 -0.113067 -0.118271 -9.25962e-05 -9.38565e-05 -0.0120132 -0.0120251 -9.38565e-05 -9.31162e-05 -0.0120251 -0.0118416 -0.0120132 -0.0120251 -0.0217813 -0.0217843 -0.0120251 -0.0118416 -0.0217843 -0.0214415 -9.31162e-05 -9.02018e-05 -0.0118416 -0.0114586 -9.02018e-05 -8.49906e-05 -0.0114586 -0.0108771 -0.0118416 -0.0114586 -0.0214415 -0.0207478 -0.0114586 -0.0108771 -0.0207478 -0.0197068 -0.0217813 -0.0217843 -0.0297451 -0.0297324 -0.0217843 -0.0214415 -0.0297324 -0.0292578 -0.0297451 -0.0297324 -0.0363554 -0.0363333 -0.0297324 -0.0292578 -0.0363333 -0.0357567 -0.0214415 -0.0207478 -0.0292578 -0.0283158 -0.0207478 -0.0197068 -0.0283158 -0.0269124 -0.0292578 -0.0283158 -0.0357567 -0.0346194 -0.0283158 -0.0269124 -0.0346194 -0.0329289 -8.49906e-05 -7.74349e-05 -0.0108771 -0.0101042 -7.74349e-05 -6.75864e-05 -0.0101042 -0.00915464 -0.0108771 -0.0101042 -0.0197068 -0.0183326 -0.0101042 -0.00915464 -0.0183326 -0.0166525 -6.75864e-05 -5.56228e-05 -0.00915464 -0.00805235 -5.56228e-05 -4.18834e-05 -0.00805235 -0.00683157 -0.00915464 -0.00805235 -0.0166525 -0.0147093 -0.00805235 -0.00683157 -0.0147093 -0.0125629 -0.0197068 -0.0183326 -0.0269124 -0.0250677 -0.0183326 -0.0166525 -0.0250677 -0.0228187 -0.0269124 -0.0250677 -0.0329289 -0.030709 -0.0250677 -0.0228187 -0.030709 -0.0280038 -0.0166525 -0.0147093 -0.0228187 -0.0202223 -0.0147093 -0.0125629 -0.0202223 -0.0173573 -0.0228187 -0.0202223 -0.0280038 -0.0248804 -0.0202223 -0.0173573 -0.0248804 -0.0214314 -0.0363554 -0.0363333 -0.0420335 -0.0420184 -0.0363333 -0.0357567 -0.0420184 -0.0413716 -0.0420335 -0.0420184 -0.0471557 -0.0471735 -0.0420184 -0.0413716 -0.0471735 -0.0464912 -0.0357567 -0.0346194 -0.0413716 -0.0400849 -0.0346194 -0.0329289 -0.0400849 -0.0381648 -0.0413716 -0.0400849 -0.0464912 -0.0450961 -0.0400849 -0.0381648 -0.0450961 -0.0429916 -0.0471557 -0.0471735 -0.0520558 -0.0521415 -0.0471735 -0.0464912 -0.0521415 -0.0514626 -0.0520558 -0.0521415 -0.0570223 -0.0572208 -0.0521415 -0.0514626 -0.0572208 -0.0565912 -0.0464912 -0.0450961 -0.0514626 -0.0499991 -0.0450961 -0.0429916 -0.0499991 -0.0477482 -0.0514626 -0.0499991 -0.0565912 -0.0551026 -0.0499991 -0.0477482 -0.0551026 -0.0527417 -0.0329289 -0.030709 -0.0381648 -0.0356369 -0.030709 -0.0280038 -0.0356369 -0.0325493 -0.0381648 -0.0356369 -0.0429916 -0.0402021 -0.0356369 -0.0325493 -0.0402021 -0.0367773 -0.0280038 -0.0248804 -0.0325493 -0.0289767 -0.0248804 -0.0214314 -0.0289767 -0.0250225 -0.0325493 -0.0289767 -0.0367773 -0.0327971 -0.0289767 -0.0250225 -0.0327971 -0.0283743 -0.0429916 -0.0402021 -0.0477482 -0.0447296 -0.0402021 -0.0367773 -0.0447296 -0.0409921 -0.0477482 -0.0447296 -0.0527417 -0.0495199 -0.0447296 -0.0409921 -0.0495199 -0.0454812 -0.0367773 -0.0327971 -0.0409921 -0.0366187 -0.0327971 -0.0283743 -0.0366187 -0.0317313 -0.0409921 -0.0366187 -0.0454812 -0.0407098 -0.0366187 -0.0317313 -0.0407098 -0.0353361 -4.18834e-05 -2.68876e-05 -0.00683157 -0.00553807 -2.68876e-05 -1.14487e-05 -0.00553807 -0.00422925 -0.00683157 -0.00553807 -0.0125629 -0.010292 -0.00553807 -0.00422925 -0.010292 -0.00799345 -1.14487e-05 3.62244e-06 -0.00422925 -0.00297592 3.62244e-06 1.55873e-05 -0.00297592 -0.00184839 -0.00422925 -0.00297592 -0.00799345 -0.00578303 -0.00297592 -0.00184839 -0.00578303 -0.00377696 -0.0125629 -0.010292 -0.0173573 -0.0143254 -0.010292 -0.00799345 -0.0143254 -0.0112503 -0.0173573 -0.0143254 -0.0214314 -0.0177755 -0.0143254 -0.0112503 -0.0177755 -0.0140564 -0.00799345 -0.00578303 -0.0112503 -0.00827682 -0.00578303 -0.00377696 -0.00827682 -0.00555096 -0.0112503 -0.00827682 -0.0140564 -0.0104405 -0.00827682 -0.00555096 -0.0104405 -0.00709725 1.55873e-05 2.39547e-05 -0.00184839 -0.000974417 2.39547e-05 5.23251e-05 -0.000974417 -0.000163773 -0.00184839 -0.000974417 -0.00377696 -0.00215361 -0.000974417 -0.000163773 -0.00215361 -0.000730969 5.23251e-05 -8.9341e-06 -0.000163773 -0.000827227 -8.9341e-06 0.00690064 -0.000827227 0.00612968 -0.000163773 -0.000827227 -0.000730969 -0.00102667 -0.000827227 0.00612968 -0.00102667 0.00635644 -0.00377696 -0.00215361 -0.00555096 -0.00327928 -0.00215361 -0.000730969 -0.00327928 -0.00131022 -0.00555096 -0.00327928 -0.00709725 -0.00425768 -0.00327928 -0.00131022 -0.00425768 -0.00180844 -0.000730969 -0.00102667 -0.00131022 -0.00120235 -0.00102667 0.00635644 -0.00120235 0.00617876 -0.00131022 -0.00120235 -0.00180844 -0.00133028 -0.00120235 0.00617876 -0.00133028 0.00603276 -0.0214314 -0.0177755 -0.0250225 -0.0208197 -0.0177755 -0.0140564 -0.0208197 -0.0165295 -0.0250225 -0.0208197 -0.0283743 -0.023656 -0.0208197 -0.0165295 -0.023656 -0.0188217 -0.0140564 -0.0104405 -0.0165295 -0.0123386 -0.0104405 -0.00709725 -0.0123386 -0.00843986 -0.0165295 -0.0123386 -0.0188217 -0.0140809 -0.0123386 -0.00843986 -0.0140809 -0.00965345 -0.0283743 -0.023656 -0.0317313 -0.0264921 -0.023656 -0.0188217 -0.0264921 -0.0211022 -0.0317313 -0.0264921 -0.0353361 -0.0295397 -0.0264921 -0.0211022 -0.0295397 -0.0235477 -0.0188217 -0.0140809 -0.0211022 -0.0157985 -0.0140809 -0.00965345 -0.0157985 -0.0108332 -0.0211022 -0.0157985 -0.0235477 -0.0176309 -0.0157985 -0.0108332 -0.0176309 -0.0120813 -0.00709725 -0.00425768 -0.00843986 -0.0050914 -0.00425768 -0.00180844 -0.0050914 -0.00221877 -0.00843986 -0.0050914 -0.00965345 -0.00582841 -0.0050914 -0.00221877 -0.00582841 -0.00256964 -0.00180844 -0.00133028 -0.00221877 -0.00143077 -0.00133028 0.00603276 -0.00143077 0.00593437 -0.00221877 -0.00143077 -0.00256964 -0.00151799 -0.00143077 0.00593437 -0.00151799 0.00588327 -0.00965345 -0.00582841 -0.0108332 -0.00653173 -0.00582841 -0.00256964 -0.00653173 -0.00289524 -0.0108332 -0.00653173 -0.0120813 -0.00726781 -0.00653173 -0.00289524 -0.00726781 -0.00322997 -0.00256964 -0.00151799 -0.00289524 -0.00160275 -0.00151799 0.00588327 -0.00160275 0.00588237 -0.00289524 -0.00160275 -0.00322997 -0.00169533 -0.00160275 0.00588237 -0.00169533 0.00592965 -0.0570223 -0.0572208 -0.062298 -0.0626661 -0.0572208 -0.0565912 -0.0626661 -0.0621421 -0.062298 -0.0626661 -0.068081 -0.0686896 -0.0626661 -0.0621421 -0.0686896 -0.0683424 -0.0565912 -0.0551026 -0.0621421 -0.06068 -0.0551026 -0.0527417 -0.06068 -0.0582511 -0.0621421 -0.06068 -0.0683424 -0.0669735 -0.06068 -0.0582511 -0.0669735 -0.064532 -0.068081 -0.0686896 -0.0745251 -0.075462 -0.0686896 -0.0683424 -0.075462 -0.0753832 -0.0745251 -0.075462 -0.0817388 -0.083111 -0.075462 -0.0753832 -0.083111 -0.0834168 -0.0683424 -0.0669735 -0.0753832 -0.0741965 -0.0669735 -0.064532 -0.0741965 -0.0718216 -0.0753832 -0.0741965 -0.0834168 -0.0825323 -0.0741965 -0.0718216 -0.0825323 -0.0803379 -0.0527417 -0.0495199 -0.0582511 -0.0548529 -0.0495199 -0.0454812 -0.0548529 -0.05052 -0.0582511 -0.0548529 -0.064532 -0.0609948 -0.0548529 -0.05052 -0.0609948 -0.0563798 -0.0454812 -0.0407098 -0.05052 -0.0453343 -0.0407098 -0.0353361 -0.0453343 -0.0394338 -0.05052 -0.0453343 -0.0563798 -0.0507609 -0.0453343 -0.0394338 -0.0507609 -0.0442808 -0.064532 -0.0609948 -0.0718216 -0.0682048 -0.0609948 -0.0563798 -0.0682048 -0.0633369 -0.0718216 -0.0682048 -0.0803379 -0.0767367 -0.0682048 -0.0633369 -0.0767367 -0.0716781 -0.0563798 -0.0507609 -0.0633369 -0.0572747 -0.0507609 -0.0442808 -0.0572747 -0.0501591 -0.0633369 -0.0572747 -0.0716781 -0.0651865 -0.0572747 -0.0501591 -0.0651865 -0.0573894 -0.0817388 -0.083111 -0.0897789 -0.0917123 -0.083111 -0.0834168 -0.0917123 -0.0925474 -0.0897789 -0.0917123 -0.098636 -0.101271 -0.0917123 -0.0925474 -0.101271 -0.102807 -0.0834168 -0.0825323 -0.0925474 -0.0921225 -0.0825323 -0.0803379 -0.0921225 -0.0902685 -0.0925474 -0.0921225 -0.102807 -0.103039 -0.0921225 -0.0902685 -0.103039 -0.10174 -0.098636 -0.101271 -0.10821 -0.11169 -0.101271 -0.102807 -0.11169 -0.114113 -0.10821 -0.11169 -0.118271 -0.122718 -0.11169 -0.114113 -0.122718 -0.12621 -0.102807 -0.103039 -0.114113 -0.115235 -0.103039 -0.10174 -0.115235 -0.114761 -0.114113 -0.115235 -0.12621 -0.128467 -0.115235 -0.114761 -0.128467 -0.129126 -0.0803379 -0.0767367 -0.0902685 -0.0868299 -0.0767367 -0.0716781 -0.0868299 -0.0816945 -0.0902685 -0.0868299 -0.10174 -0.098678 -0.0868299 -0.0816945 -0.098678 -0.0936529 -0.0716781 -0.0651865 -0.0816945 -0.0748322 -0.0651865 -0.0573894 -0.0748322 -0.0663365 -0.0816945 -0.0748322 -0.0936529 -0.0865492 -0.0748322 -0.0663365 -0.0865492 -0.077394 -0.10174 -0.098678 -0.114761 -0.112364 -0.098678 -0.0936529 -0.112364 -0.107729 -0.114761 -0.112364 -0.129126 -0.127754 -0.112364 -0.107729 -0.127754 -0.123892 -0.0936529 -0.0865492 -0.107729 -0.100614 -0.086