# vtk DataFile Version 3.0
#This file was generated by the deal.II library on 2026/1/5 at 14:19:34
ASCII
DATASET UNSTRUCTURED_GRID

POINTS 4096 double
0 0 0
0.03125 0 0
0 0.03125 0
0.03125 0.03125 0
0.03125 0 0
0.0625 0 0
0.03125 0.03125 0
0.0625 0.03125 0
0 0.03125 0
0.03125 0.03125 0
0 0.0625 0
0.03125 0.0625 0
0.03125 0.03125 0
0.0625 0.03125 0
0.03125 0.0625 0
0.0625 0.0625 0
0.0625 0 0
0.09375 0 0
0.0625 0.03125 0
0.09375 0.03125 0
0.09375 0 0
0.125 0 0
0.09375 0.03125 0
0.125 0.03125 0
0.0625 0.03125 0
0.09375 0.03125 0
0.0625 0.0625 0
0.09375 0.0625 0
0.09375 0.03125 0
0.125 0.03125 0
0.09375 0.0625 0
0.125 0.0625 0
0 0.0625 0
0.03125 0.0625 0
0 0.09375 0
0.03125 0.09375 0
0.03125 0.0625 0
0.0625 0.0625 0
0.03125 0.09375 0
0.0625 0.09375 0
0 0.09375 0
0.03125 0.09375 0
0 0.125 0
0.03125 0.125 0
0.03125 0.09375 0
0.0625 0.09375 0
0.03125 0.125 0
0.0625 0.125 0
0.0625 0.0625 0
0.09375 0.0625 0
0.0625 0.09375 0
0.09375 0.09375 0
0.09375 0.0625 0
0.125 0.0625 0
0.09375 0.09375 0
0.125 0.09375 0
0.0625 0.09375 0
0.09375 0.09375 0
0.0625 0.125 0
0.09375 0.125 0
0.09375 0.09375 0
0.125 0.09375 0
0.09375 0.125 0
0.125 0.125 0
0.125 0 0
0.15625 0 0
0.125 0.03125 0
0.15625 0.03125 0
0.15625 0 0
0.1875 0 0
0.15625 0.03125 0
0.1875 0.03125 0
0.125 0.03125 0
0.15625 0.03125 0
0.125 0.0625 0
0.15625 0.0625 0
0.15625 0.03125 0
0.1875 0.03125 0
0.15625 0.0625 0
0.1875 0.0625 0
0.1875 0 0
0.21875 0 0
0.1875 0.03125 0
0.21875 0.03125 0
0.21875 0 0
0.25 0 0
0.21875 0.03125 0
0.25 0.03125 0
0.1875 0.03125 0
0.21875 0.03125 0
0.1875 0.0625 0
0.21875 0.0625 0
0.21875 0.03125 0
0.25 0.03125 0
0.21875 0.0625 0
0.25 0.0625 0
0.125 0.0625 0
0.15625 0.0625 0
0.125 0.09375 0
0.15625 0.09375 0
0.15625 0.0625 0
0.1875 0.0625 0
0.15625 0.09375 0
0.1875 0.09375 0
0.125 0.09375 0
0.15625 0.09375 0
0.125 0.125 0
0.15625 0.125 0
0.15625 0.09375 0
0.1875 0.09375 0
0.15625 0.125 0
0.1875 0.125 0
0.1875 0.0625 0
0.21875 0.0625 0
0.1875 0.09375 0
0.21875 0.09375 0
0.21875 0.0625 0
0.25 0.0625 0
0.21875 0.09375 0
0.25 0.09375 0
0.1875 0.09375 0
0.21875 0.09375 0
0.1875 0.125 0
0.21875 0.125 0
0.21875 0.09375 0
0.25 0.09375 0
0.21875 0.125 0
0.25 0.125 0
0 0.125 0
0.03125 0.125 0
0 0.15625 0
0.03125 0.15625 0
0.03125 0.125 0
0.0625 0.125 0
0.03125 0.15625 0
0.0625 0.15625 0
0 0.15625 0
0.03125 0.15625 0
0 0.1875 0
0.03125 0.1875 0
0.03125 0.15625 0
0.0625 0.15625 0
0.03125 0.1875 0
0.0625 0.1875 0
0.0625 0.125 0
0.09375 0.125 0
0.0625 0.15625 0
0.09375 0.15625 0
0.09375 0.125 0
0.125 0.125 0
0.09375 0.15625 0
0.125 0.15625 0
0.0625 0.15625 0
0.09375 0.15625 0
0.0625 0.1875 0
0.09375 0.1875 0
0.09375 0.15625 0
0.125 0.15625 0
0.09375 0.1875 0
0.125 0.1875 0
0 0.1875 0
0.03125 0.1875 0
0 0.21875 0
0.03125 0.21875 0
0.03125 0.1875 0
0.0625 0.1875 0
0.03125 0.21875 0
0.0625 0.21875 0
0 0.21875 0
0.03125 0.21875 0
0 0.25 0
0.03125 0.25 0
0.03125 0.21875 0
0.0625 0.21875 0
0.03125 0.25 0
0.0625 0.25 0
0.0625 0.1875 0
0.09375 0.1875 0
0.0625 0.21875 0
0.09375 0.21875 0
0.09375 0.1875 0
0.125 0.1875 0
0.09375 0.21875 0
0.125 0.21875 0
0.0625 0.21875 0
0.09375 0.21875 0
0.0625 0.25 0
0.09375 0.25 0
0.09375 0.21875 0
0.125 0.21875 0
0.09375 0.25 0
0.125 0.25 0
0.125 0.125 0
0.15625 0.125 0
0.125 0.15625 0
0.15625 0.15625 0
0.15625 0.125 0
0.1875 0.125 0
0.15625 0.15625 0
0.1875 0.15625 0
0.125 0.15625 0
0.15625 0.15625 0
0.125 0.1875 0
0.15625 0.1875 0
0.15625 0.15625 0
0.1875 0.15625 0
0.15625 0.1875 0
0.1875 0.1875 0
0.1875 0.125 0
0.21875 0.125 0
0.1875 0.15625 0
0.21875 0.15625 0
0.21875 0.125 0
0.25 0.125 0
0.21875 0.15625 0
0.25 0.15625 0
0.1875 0.15625 0
0.21875 0.15625 0
0.1875 0.1875 0
0.21875 0.1875 0
0.21875 0.15625 0
0.25 0.15625 0
0.21875 0.1875 0
0.25 0.1875 0
0.125 0.1875 0
0.15625 0.1875 0
0.125 0.21875 0
0.15625 0.21875 0
0.15625 0.1875 0
0.1875 0.1875 0
0.15625 0.21875 0
0.1875 0.21875 0
0.125 0.21875 0
0.15625 0.21875 0
0.125 0.25 0
0.15625 0.25 0
0.15625 0.21875 0
0.1875 0.21875 0
0.15625 0.25 0
0.1875 0.25 0
0.1875 0.1875 0
0.21875 0.1875 0
0.1875 0.21875 0
0.21875 0.21875 0
0.21875 0.1875 0
0.25 0.1875 0
0.21875 0.21875 0
0.25 0.21875 0
0.1875 0.21875 0
0.21875 0.21875 0
0.1875 0.25 0
0.21875 0.25 0
0.21875 0.21875 0
0.25 0.21875 0
0.21875 0.25 0
0.25 0.25 0
0.25 0 0
0.28125 0 0
0.25 0.03125 0
0.28125 0.03125 0
0.28125 0 0
0.3125 0 0
0.28125 0.03125 0
0.3125 0.03125 0
0.25 0.03125 0
0.28125 0.03125 0
0.25 0.0625 0
0.28125 0.0625 0
0.28125 0.03125 0
0.3125 0.03125 0
0.28125 0.0625 0
0.3125 0.0625 0
0.3125 0 0
0.34375 0 0
0.3125 0.03125 0
0.34375 0.03125 0
0.34375 0 0
0.375 0 0
0.34375 0.03125 0
0.375 0.03125 0
0.3125 0.03125 0
0.34375 0.03125 0
0.3125 0.0625 0
0.34375 0.0625 0
0.34375 0.03125 0
0.375 0.03125 0
0.34375 0.0625 0
0.375 0.0625 0
0.25 0.0625 0
0.28125 0.0625 0
0.25 0.09375 0
0.28125 0.09375 0
0.28125 0.0625 0
0.3125 0.0625 0
0.28125 0.09375 0
0.3125 0.09375 0
0.25 0.09375 0
0.28125 0.09375 0
0.25 0.125 0
0.28125 0.125 0
0.28125 0.09375 0
0.3125 0.09375 0
0.28125 0.125 0
0.3125 0.125 0
0.3125 0.0625 0
0.34375 0.0625 0
0.3125 0.09375 0
0.34375 0.09375 0
0.34375 0.0625 0
0.375 0.0625 0
0.34375 0.09375 0
0.375 0.09375 0
0.3125 0.09375 0
0.34375 0.09375 0
0.3125 0.125 0
0.34375 0.125 0
0.34375 0.09375 0
0.375 0.09375 0
0.34375 0.125 0
0.375 0.125 0
0.375 0 0
0.40625 0 0
0.375 0.03125 0
0.40625 0.03125 0
0.40625 0 0
0.4375 0 0
0.40625 0.03125 0
0.4375 0.03125 0
0.375 0.03125 0
0.40625 0.03125 0
0.375 0.0625 0
0.40625 0.0625 0
0.40625 0.03125 0
0.4375 0.03125 0
0.40625 0.0625 0
0.4375 0.0625 0
0.4375 0 0
0.46875 0 0
0.4375 0.03125 0
0.46875 0.03125 0
0.46875 0 0
0.5 0 0
0.46875 0.03125 0
0.5 0.03125 0
0.4375 0.03125 0
0.46875 0.03125 0
0.4375 0.0625 0
0.46875 0.0625 0
0.46875 0.03125 0
0.5 0.03125 0
0.46875 0.0625 0
0.5 0.0625 0
0.375 0.0625 0
0.40625 0.0625 0
0.375 0.09375 0
0.40625 0.09375 0
0.40625 0.0625 0
0.4375 0.0625 0
0.40625 0.09375 0
0.4375 0.09375 0
0.375 0.09375 0
0.40625 0.09375 0
0.375 0.125 0
0.40625 0.125 0
0.40625 0.09375 0
0.4375 0.09375 0
0.40625 0.125 0
0.4375 0.125 0
0.4375 0.0625 0
0.46875 0.0625 0
0.4375 0.09375 0
0.46875 0.09375 0
0.46875 0.0625 0
0.5 0.0625 0
0.46875 0.09375 0
0.5 0.09375 0
0.4375 0.09375 0
0.46875 0.09375 0
0.4375 0.125 0
0.46875 0.125 0
0.46875 0.09375 0
0.5 0.09375 0
0.46875 0.125 0
0.5 0.125 0
0.25 0.125 0
0.28125 0.125 0
0.25 0.15625 0
0.28125 0.15625 0
0.28125 0.125 0
0.3125 0.125 0
0.28125 0.15625 0
0.3125 0.15625 0
0.25 0.15625 0
0.28125 0.15625 0
0.25 0.1875 0
0.28125 0.1875 0
0.28125 0.15625 0
0.3125 0.15625 0
0.28125 0.1875 0
0.3125 0.1875 0
0.3125 0.125 0
0.34375 0.125 0
0.3125 0.15625 0
0.34375 0.15625 0
0.34375 0.125 0
0.375 0.125 0
0.34375 0.15625 0
0.375 0.15625 0
0.3125 0.15625 0
0.34375 0.15625 0
0.3125 0.1875 0
0.34375 0.1875 0
0.34375 0.15625 0
0.375 0.15625 0
0.34375 0.1875 0
0.375 0.1875 0
0.25 0.1875 0
0.28125 0.1875 0
0.25 0.21875 0
0.28125 0.21875 0
0.28125 0.1875 0
0.3125 0.1875 0
0.28125 0.21875 0
0.3125 0.21875 0
0.25 0.21875 0
0.28125 0.21875 0
0.25 0.25 0
0.28125 0.25 0
0.28125 0.21875 0
0.3125 0.21875 0
0.28125 0.25 0
0.3125 0.25 0
0.3125 0.1875 0
0.34375 0.1875 0
0.3125 0.21875 0
0.34375 0.21875 0
0.34375 0.1875 0
0.375 0.1875 0
0.34375 0.21875 0
0.375 0.21875 0
0.3125 0.21875 0
0.34375 0.21875 0
0.3125 0.25 0
0.34375 0.25 0
0.34375 0.21875 0
0.375 0.21875 0
0.34375 0.25 0
0.375 0.25 0
0.375 0.125 0
0.40625 0.125 0
0.375 0.15625 0
0.40625 0.15625 0
0.40625 0.125 0
0.4375 0.125 0
0.40625 0.15625 0
0.4375 0.15625 0
0.375 0.15625 0
0.40625 0.15625 0
0.375 0.1875 0
0.40625 0.1875 0
0.40625 0.15625 0
0.4375 0.15625 0
0.40625 0.1875 0
0.4375 0.1875 0
0.4375 0.125 0
0.46875 0.125 0
0.4375 0.15625 0
0.46875 0.15625 0
0.46875 0.125 0
0.5 0.125 0
0.46875 0.15625 0
0.5 0.15625 0
0.4375 0.15625 0
0.46875 0.15625 0
0.4375 0.1875 0
0.46875 0.1875 0
0.46875 0.15625 0
0.5 0.15625 0
0.46875 0.1875 0
0.5 0.1875 0
0.375 0.1875 0
0.40625 0.1875 0
0.375 0.21875 0
0.40625 0.21875 0
0.40625 0.1875 0
0.4375 0.1875 0
0.40625 0.21875 0
0.4375 0.21875 0
0.375 0.21875 0
0.40625 0.21875 0
0.375 0.25 0
0.40625 0.25 0
0.40625 0.21875 0
0.4375 0.21875 0
0.40625 0.25 0
0.4375 0.25 0
0.4375 0.1875 0
0.46875 0.1875 0
0.4375 0.21875 0
0.46875 0.21875 0
0.46875 0.1875 0
0.5 0.1875 0
0.46875 0.21875 0
0.5 0.21875 0
0.4375 0.21875 0
0.46875 0.21875 0
0.4375 0.25 0
0.46875 0.25 0
0.46875 0.21875 0
0.5 0.21875 0
0.46875 0.25 0
0.5 0.25 0
0 0.25 0
0.03125 0.25 0
0 0.28125 0
0.03125 0.28125 0
0.03125 0.25 0
0.0625 0.25 0
0.03125 0.28125 0
0.0625 0.28125 0
0 0.28125 0
0.03125 0.28125 0
0 0.3125 0
0.03125 0.3125 0
0.03125 0.28125 0
0.0625 0.28125 0
0.03125 0.3125 0
0.0625 0.3125 0
0.0625 0.25 0
0.09375 0.25 0
0.0625 0.28125 0
0.09375 0.28125 0
0.09375 0.25 0
0.125 0.25 0
0.09375 0.28125 0
0.125 0.28125 0
0.0625 0.28125 0
0.09375 0.28125 0
0.0625 0.3125 0
0.09375 0.3125 0
0.09375 0.28125 0
0.125 0.28125 0
0.09375 0.3125 0
0.125 0.3125 0
0 0.3125 0
0.03125 0.3125 0
0 0.34375 0
0.03125 0.34375 0
0.03125 0.3125 0
0.0625 0.3125 0
0.03125 0.34375 0
0.0625 0.34375 0
0 0.34375 0
0.03125 0.34375 0
0 0.375 0
0.03125 0.375 0
0.03125 0.34375 0
0.0625 0.34375 0
0.03125 0.375 0
0.0625 0.375 0
0.0625 0.3125 0
0.09375 0.3125 0
0.0625 0.34375 0
0.09375 0.34375 0
0.09375 0.3125 0
0.125 0.3125 0
0.09375 0.34375 0
0.125 0.34375 0
0.0625 0.34375 0
0.09375 0.34375 0
0.0625 0.375 0
0.09375 0.375 0
0.09375 0.34375 0
0.125 0.34375 0
0.09375 0.375 0
0.125 0.375 0
0.125 0.25 0
0.15625 0.25 0
0.125 0.28125 0
0.15625 0.28125 0
0.15625 0.25 0
0.1875 0.25 0
0.15625 0.28125 0
0.1875 0.28125 0
0.125 0.28125 0
0.15625 0.28125 0
0.125 0.3125 0
0.15625 0.3125 0
0.15625 0.28125 0
0.1875 0.28125 0
0.15625 0.3125 0
0.1875 0.3125 0
0.1875 0.25 0
0.21875 0.25 0
0.1875 0.28125 0
0.21875 0.28125 0
0.21875 0.25 0
0.25 0.25 0
0.21875 0.28125 0
0.25 0.28125 0
0.1875 0.28125 0
0.21875 0.28125 0
0.1875 0.3125 0
0.21875 0.3125 0
0.21875 0.28125 0
0.25 0.28125 0
0.21875 0.3125 0
0.25 0.3125 0
0.125 0.3125 0
0.15625 0.3125 0
0.125 0.34375 0
0.15625 0.34375 0
0.15625 0.3125 0
0.1875 0.3125 0
0.15625 0.34375 0
0.1875 0.34375 0
0.125 0.34375 0
[...]
POINT_DATA 4096
SCALARS u_x double 1
LOOKUP_TABLE default
-1.03373e-05 1.4429e-05 -6.7614e-05 -7.58469e-05 1.4429e-05 2.11129e-05 -7.58469e-05 -0.000447577 -6.7614e-05 -7.58469e-05 -0.00019054 -0.00025056 -7.58469e-05 -0.000447577 -0.00025056 -0.00104978 2.11129e-05 1.59464e-05 -0.000447577 -0.00110596 1.59464e-05 4.95743e-06 -0.00110596 -0.0019882 -0.000447577 -0.00110596 -0.00104978 -0.00227221 -0.00110596 -0.0019882 -0.00227221 -0.00383447 -0.00019054 -0.00025056 -0.000310346 -0.000403731 -0.00025056 -0.00104978 -0.000403731 -0.00158575 -0.000310346 -0.000403731 -0.000381054 -0.000520467 -0.000403731 -0.00158575 -0.000520467 -0.00200357 -0.00104978 -0.00227221 -0.00158575 -0.00328274 -0.00227221 -0.00383447 -0.00328274 -0.00538389 -0.00158575 -0.00328274 -0.00200357 -0.00408458 -0.00328274 -0.00538389 -0.00408458 -0.00661464 4.95743e-06 -8.09698e-06 -0.0019882 -0.00300337 -8.09698e-06 -2.13799e-05 -0.00300337 -0.00407629 -0.0019882 -0.00300337 -0.00383447 -0.0056025 -0.00300337 -0.00407629 -0.0056025 -0.0074631 -2.13799e-05 -3.41085e-05 -0.00407629 -0.0051505 -3.41085e-05 -4.59753e-05 -0.0051505 -0.00618642 -0.00407629 -0.0051505 -0.0074631 -0.0093256 -0.0051505 -0.00618642 -0.0093256 -0.0111232 -0.00383447 -0.0056025 -0.00538389 -0.00772388 -0.0056025 -0.0074631 -0.00772388 -0.0101689 -0.00538389 -0.00772388 -0.00661464 -0.0093994 -0.00772388 -0.0101689 -0.0093994 -0.0122893 -0.0074631 -0.0093256 -0.0101689 -0.0126094 -0.0093256 -0.0111232 -0.0126094 -0.0149623 -0.0101689 -0.0126094 -0.0122893 -0.0151631 -0.0126094 -0.0149623 -0.0151631 -0.017928 -0.000381054 -0.000520467 -0.000381662 -0.000611646 -0.000520467 -0.00200357 -0.000611646 -0.00231807 -0.000381662 -0.000611646 -0.000303421 -0.000691561 -0.000611646 -0.00231807 -0.000691561 -0.00256351 -0.00200357 -0.00408458 -0.00231807 -0.00470706 -0.00408458 -0.00661464 -0.00470706 -0.00758313 -0.00231807 -0.00470706 -0.00256351 -0.00520934 -0.00470706 -0.00758313 -0.00520934 -0.008377 -0.000303421 -0.000691561 -0.000142352 -0.000772282 -0.000691561 -0.00256351 -0.000772282 -0.002774 -0.000142352 -0.000772282 0.000104202 -0.000862976 -0.000772282 -0.002774 -0.000862976 -0.0029774 -0.00256351 -0.00520934 -0.002774 -0.00565251 -0.00520934 -0.008377 -0.00565251 -0.00908543 -0.002774 -0.00565251 -0.0029774 -0.00608825 -0.00565251 -0.00908543 -0.00608825 -0.00978479 -0.00661464 -0.0093994 -0.00758313 -0.010726 -0.0093994 -0.0122893 -0.010726 -0.0139703 -0.00758313 -0.010726 -0.008377 -0.0118252 -0.010726 -0.0139703 -0.0118252 -0.0153719 -0.0122893 -0.0151631 -0.0139703 -0.0171853 -0.0151631 -0.017928 -0.0171853 -0.0202718 -0.0139703 -0.0171853 -0.0153719 -0.0188772 -0.0171853 -0.0202718 -0.0188772 -0.0222362 -0.008377 -0.0118252 -0.00908543 -0.0128157 -0.0118252 -0.0153719 -0.0128157 -0.0166439 -0.00908543 -0.0128157 -0.00978479 -0.0137986 -0.0128157 -0.0166439 -0.0137986 -0.0179115 -0.0153719 -0.0188772 -0.0166439 -0.0204201 -0.0188772 -0.0222362 -0.0204201 -0.024034 -0.0166439 -0.0204201 -0.0179115 -0.0219631 -0.0204201 -0.024034 -0.0219631 -0.0258368 -4.59753e-05 -5.68903e-05 -0.00618642 -0.00715678 -5.68903e-05 -6.68319e-05 -0.00715678 -0.00804237 -0.00618642 -0.00715678 -0.0111232 -0.0128079 -0.00715678 -0.00804237 -0.0128079 -0.014345 -6.68319e-05 -7.57725e-05 -0.00804237 -0.00882881 -7.57725e-05 -8.36519e-05 -0.00882881 -0.00950448 -0.00804237 -0.00882881 -0.014345 -0.0157082 -0.00882881 -0.00950448 -0.0157082 -0.0168766 -0.0111232 -0.0128079 -0.0149623 -0.0171661 -0.0128079 -0.014345 -0.0171661 -0.0191753 -0.0149623 -0.0171661 -0.017928 -0.0205146 -0.0171661 -0.0191753 -0.0205146 -0.0228707 -0.014345 -0.0157082 -0.0191753 -0.0209552 -0.0157082 -0.0168766 -0.0209552 -0.0224779 -0.0191753 -0.0209552 -0.0228707 -0.024956 -0.0209552 -0.0224779 -0.024956 -0.0267382 -8.36519e-05 -9.03755e-05 -0.00950448 -0.0100594 -9.03755e-05 -9.5826e-05 -0.0100594 -0.0104848 -0.00950448 -0.0100594 -0.0168766 -0.0178326 -0.0100594 -0.0104848 -0.0178326 -0.0185612 -9.5826e-05 -9.98771e-05 -0.0104848 -0.0107729 -9.98771e-05 -0.000102402 -0.0107729 -0.0109171 -0.0104848 -0.0107729 -0.0185612 -0.0190494 -0.0107729 -0.0109171 -0.0190494 -0.0192865 -0.0168766 -0.0178326 -0.0224779 -0.0237205 -0.0178326 -0.0185612 -0.0237205 -0.0246636 -0.0224779 -0.0237205 -0.0267382 -0.0281906 -0.0237205 -0.0246636 -0.0281906 -0.0292908 -0.0185612 -0.0190494 -0.0246636 -0.0252908 -0.0190494 -0.0192865 -0.0252908 -0.0255886 -0.0246636 -0.0252908 -0.0292908 -0.0300199 -0.0252908 -0.0255886 -0.0300199 -0.0303627 -0.017928 -0.0205146 -0.0202718 -0.0231556 -0.0205146 -0.0228707 -0.0231556 -0.0257803 -0.0202718 -0.0231556 -0.0222362 -0.0253712 -0.0231556 -0.0257803 -0.0253712 -0.0282232 -0.0228707 -0.024956 -0.0257803 -0.0281023 -0.024956 -0.0267382 -0.0281023 -0.0300864 -0.0257803 -0.0281023 -0.0282232 -0.0307466 -0.0281023 -0.0300864 -0.0307466 -0.0329046 -0.0222362 -0.0253712 -0.024034 -0.0274042 -0.0253712 -0.0282232 -0.0274042 -0.0304702 -0.024034 -0.0274042 -0.0258368 -0.029448 -0.0274042 -0.0304702 -0.029448 -0.0327344 -0.0282232 -0.0307466 -0.0304702 -0.033185 -0.0307466 -0.0329046 -0.033185 -0.0355107 -0.0304702 -0.033185 -0.0327344 -0.035648 -0.033185 -0.0355107 -0.035648 -0.0381504 -0.0267382 -0.0281906 -0.0300864 -0.0317036 -0.0281906 -0.0292908 -0.0317036 -0.0329292 -0.0300864 -0.0317036 -0.0329046 -0.0346664 -0.0317036 -0.0329292 -0.0346664 -0.0360057 -0.0292908 -0.0300199 -0.0329292 -0.0337427 -0.0300199 -0.0303627 -0.0337427 -0.0341271 -0.0329292 -0.0337427 -0.0360057 -0.0369005 -0.0337427 -0.0341271 -0.0369005 -0.037332 -0.0329046 -0.0346664 -0.0355107 -0.0374152 -0.0346664 -0.0360057 -0.0374152 -0.0388712 -0.0355107 -0.0374152 -0.0381504 -0.0402087 -0.0374152 -0.0388712 -0.0402087 -0.0417944 -0.0360057 -0.0369005 -0.0388712 -0.0398547 -0.0369005 -0.037332 -0.0398547 -0.0403454 -0.0388712 -0.0398547 -0.0417944 -0.0428819 -0.0398547 -0.0403454 -0.0428819 -0.0434486 0.000104202 -0.000862976 0.000439373 -0.000970304 -0.000862976 -0.0029774 -0.000970304 -0.00319438 0.000439373 -0.000970304 0.000867606 -0.00109918 -0.000970304 -0.00319438 -0.00109918 -0.00343972 -0.0029774 -0.00608825 -0.00319438 -0.0065562 -0.00608825 -0.00978479 -0.0065562 -0.0105345 -0.00319438 -0.0065562 -0.00343972 -0.00708548 -0.0065562 -0.0105345 -0.00708548 -0.0113789 0.000867606 -0.00109918 0.00139504 -0.00125354 -0.00109918 -0.00343972 -0.00125354 -0.00372434 0.00139504 -0.00125354 0.00202964 -0.00143707 -0.00125354 -0.00372434 -0.00143707 -0.00405732 -0.00343972 -0.00708548 -0.00372434 -0.00769813 -0.00708548 -0.0113789 -0.00769813 -0.0123517 -0.00372434 -0.00769813 -0.00405732 -0.00841272 -0.00769813 -0.0123517 -0.00841272 -0.0134811 -0.00978479 -0.0137986 -0.0105345 -0.0148527 -0.0137986 -0.0179115 -0.0148527 -0.0192718 -0.0105345 -0.0148527 -0.0113789 -0.0160369 -0.0148527 -0.0192718 -0.0160369 -0.0207973 -0.0179115 -0.0219631 -0.0192718 -0.0236204 -0.0219631 -0.0258368 -0.0236204 -0.0277748 -0.0192718 -0.0236204 -0.0207973 -0.0254764 -0.0236204 -0.0277748 -0.0254764 -0.029943 -0.0113789 -0.0160369 -0.0123517 -0.0173961 -0.0160369 -0.0207973 -0.0173961 -0.0225425 -0.0123517 -0.0173961 -0.0134811 -0.0189675 -0.0173961 -0.0225425 -0.0189675 -0.0245519 -0.0207973 -0.0254764 -0.0225425 -0.0275937 -0.0254764 -0.029943 -0.0275937 -0.0324104 -0.0225425 -0.0275937 -0.0245519 -0.0300224 -0.0275937 -0.0324104 -0.0300224 -0.0352308 0.00202964 -0.00143707 0.00278135 -0.00165377 -0.00143707 -0.00405732 -0.00165377 -0.0044478 0.00278135 -0.00165377 0.0036623 -0.00190848 -0.00165377 -0.0044478 -0.00190848 -0.00490658 -0.00405732 -0.00841272 -0.0044478 -0.0092477 -0.00841272 -0.0134811 -0.0092477 -0.0147949 -0.0044478 -0.0092477 -0.00490658 -0.0102245 -0.0092477 -0.0147949 -0.0102245 -0.0163242 0.0036623 -0.00190848 0.00468703 -0.00220744 -0.00190848 -0.00490658 -0.00220744 -0.00544771 0.00468703 -0.00220744 0.00587301 -0.00255894 -0.00220744 -0.00544771 -0.00255894 -0.00609044 -0.00490658 -0.0102245 -0.00544771 -0.0113703 -0.0102245 -0.0163242 -0.0113703 -0.0181082 -0.00544771 -0.0113703 -0.00609044 -0.0127217 -0.0113703 -0.0181082 -0.0127217 -0.0201977 -0.0134811 -0.0189675 -0.0147949 -0.0207867 -0.0189675 -0.0245519 -0.0207867 -0.0268673 -0.0147949 -0.0207867 -0.0163242 -0.0228931 -0.0207867 -0.0268673 -0.0228931 -0.0295331 -0.0245519 -0.0300224 -0.0268673 -0.0328077 -0.0300224 -0.0352308 -0.0328077 -0.0384509 -0.0268673 -0.0328077 -0.0295331 -0.0359964 -0.0328077 -0.0384509 -0.0359964 -0.0421171 -0.0163242 -0.0228931 -0.0181082 -0.0253345 -0.0228931 -0.0295331 -0.0253345 -0.032602 -0.0181082 -0.0253345 -0.0201977 -0.028172 -0.0253345 -0.032602 -0.028172 -0.0361395 -0.0295331 -0.0359964 -0.032602 -0.0396421 -0.0359964 -0.0421171 -0.0396421 -0.0462802 -0.032602 -0.0396421 -0.0361395 -0.043809 -0.0396421 -0.0462802 -0.043809 -0.050999 -0.0258368 -0.029448 -0.0277748 -0.0316471 -0.029448 -0.0327344 -0.0316471 -0.0351732 -0.0277748 -0.0316471 -0.029943 -0.0341054 -0.0316471 -0.0351732 -0.0341054 -0.0378984 -0.0327344 -0.035648 -0.0351732 -0.0383047 -0.035648 -0.0381504 -0.0383047 -0.0410027 -0.0351732 -0.0383047 -0.0378984 -0.0412735 -0.0383047 -0.0410027 -0.0412735 -0.044192 -0.029943 -0.0341054 -0.0324104 -0.0368973 -0.0341054 -0.0378984 -0.0368973 -0.0409885 -0.0324104 -0.0368973 -0.0352308 -0.0400788 -0.0368973 -0.0409885 -0.0400788 -0.0445004 -0.0378984 -0.0412735 -0.0409885 -0.0446361 -0.0412735 -0.044192 -0.0446361 -0.0478027 -0.0409885 -0.0446361 -0.0445004 -0.0484499 -0.0446361 -0.0478027 -0.0484499 -0.0518926 -0.0381504 -0.0402087 -0.0410027 -0.0432342 -0.0402087 -0.0417944 -0.0432342 -0.0449696 -0.0410027 -0.0432342 -0.044192 -0.0466211 -0.0432342 -0.0449696 -0.0466211 -0.0485307 -0.0417944 -0.0428819 -0.0449696 -0.0461817 -0.0428819 -0.0434486 -0.0461817 -0.0468451 -0.0449696 -0.0461817 -0.0485307 -0.0498921 -0.0461817 -0.0468451 -0.0498921 -0.0506772 -0.044192 -0.0466211 -0.0478027 -0.0504565 -0.0466211 -0.0485307 -0.0504565 -0.0525677 -0.0478027 -0.0504565 -0.0518926 -0.054799 -0.0504565 -0.0525677 -0.054799 -0.0571409 -0.0485307 -0.0498921 -0.0525677 -0.0541068 -0.0498921 -0.0506772 -0.0541068 -0.0550425 -0.0525677 -0.0541068 -0.0571409 -0.0588886 -0.0541068 -0.0550425 -0.0588886 -0.0600086 -0.0352308 -0.0400788 -0.0384509 -0.0436962 -0.0400788 -0.0445004 -0.0436962 -0.0484793 -0.0384509 -0.0436962 -0.0421171 -0.0477934 -0.0436962 -0.0484793 -0.0477934 -0.052965 -0.0445004 -0.0484499 -0.0484793 -0.0527583 -0.0484499 -0.0518926 -0.0527583 -0.056503 -0.0484793 -0.0527583 -0.052965 -0.0575963 -0.0527583 -0.056503 -0.0575963 -0.0616649 -0.0421171 -0.0477934 -0.0462802 -0.0524161 -0.0477934 -0.052965 -0.0524161 -0.0579962 -0.0462802 -0.0524161 -0.050999 -0.0576139 -0.0524161 -0.0579962 -0.0576139 -0.0636115 -0.052965 -0.0575963 -0.0579962 -0.062995 -0.0575963 -0.0616649 -0.062995 -0.0674014 -0.0579962 -0.062995 -0.0636115 -0.0689809 -0.062995 -0.0674014 -0.0689809 -0.0737271 -0.0518926 -0.054799 -0.056503 -0.0596887 -0.054799 -0.0571409 -0.0596887 -0.0622905 -0.056503 -0.0596887 -0.0616649 -0.0651531 -0.0596887 -0.0622905 -0.0651531 -0.0680424 -0.0571409 -0.0588886 -0.0622905 -0.0642801 -0.0588886 -0.0600086 -0.0642801 -0.0656229 -0.0622905 -0.0642801 -0.0680424 -0.0703083 -0.0642801 -0.0656229 -0.0703083 -0.0719167 -0.0616649 -0.0651531 -0.0674014 -0.0712089 -0.0651531 -0.0680424 -0.0712089 -0.0744087 -0.0674014 -0.0712089 -0.0737271 -0.0778598 -0.0712089 -0.0744087 -0.0778598 -0.0813848 -0.0680424 -0.0703083 -0.0744087 -0.076984 -0.0703083 -0.0719167 -0.076984 -0.0789043 -0.0744087 -0.076984 -0.0813848 -0.0842974 -0.076984 -0.0789043 -0.0842974 -0.0865757 -0.000102402 -0.000103278 -0.0109171 -0.0109122 -0.000103278 -0.000102393 -0.0109122 -0.0107546 -0.0109171 -0.0109122 -0.0192865 -0.0192643 -0.0109122 -0.0107546 -0.0192643 -0.0189773 -0.000102393 -9.96631e-05 -0.0107546 -0.0104424 -9.96631e-05 -9.50262e-05 -0.0104424 -0.0099763 -0.0107546 -0.0104424 -0.0189773 -0.0184234 -0.0104424 -0.0099763 -0.0184234 -0.0176046 -0.0192865 -0.0192643 -0.0255886 -0.0255471 -0.0192643 -0.0189773 -0.0255471 -0.02516 -0.0255886 -0.0255471 -0.0303627 -0.0303079 -0.0255471 -0.02516 -0.0303079 -0.0298484 -0.0189773 -0.0184234 -0.02516 -0.0244253 -0.0184234 -0.0176046 -0.0244253 -0.0233461 -0.02516 -0.0244253 -0.0298484 -0.0289821 -0.0244253 -0.0233461 -0.0289821 -0.0277128 -9.50262e-05 -8.84419e-05 -0.0099763 -0.00935935 -8.84419e-05 -7.99013e-05 -0.00935935 -0.00859811 -0.0099763 -0.00935935 -0.0176046 -0.0165273 -0.00935935 -0.00859811 -0.0165273 -0.0152038 -7.99013e-05 -6.9439e-05 -0.00859811 -0.00770335 -6.9439e-05 -5.71514e-05 -0.00770335 -0.00669165 -0.00859811 -0.00770335 -0.0152038 -0.0136539 -0.00770335 -0.00669165 -0.0136539 -0.0119072 -0.0176046 -0.0165273 -0.0233461 -0.0219317 -0.0165273 -0.0152038 -0.0219317 -0.0201988 -0.0233461 -0.0219317 -0.0277128 -0.0260515 -0.0219317 -0.0201988 -0.0260515 -0.0240178 -0.0152038 -0.0136539 -0.0201988 -0.0181739 -0.0136539 -0.0119072 -0.0181739 -0.015896 -0.0201988 -0.0181739 -0.0240178 -0.0216424 -0.0181739 -0.015896 -0.0216424 -0.0189705 -0.0303627 -0.0303079 -0.0341271 -0.0340697 -0.0303079 -0.0298484 -0.0340697 -0.0335624 -0.0341271 -0.0340697 -0.037332 -0.0372859 -0.0340697 -0.0335624 -0.0372859 -0.0367522 -0.0298484 -0.0289821 -0.0335624 -0.0326024 -0.0289821 -0.0277128 -0.0326024 -0.031193 -0.0335624 -0.0326024 -0.0367522 -0.0357262 -0.0326024 -0.031193 -0.0357262 -0.0342101 -0.037332 -0.0372859 -0.0403454 -0.0403264 -0.0372859 -0.0367522 -0.0403264 -0.039785 -0.0403454 -0.0403264 -0.0434486 -0.0434744 -0.0403264 -0.039785 -0.0434744 -0.0429433 -0.0367522 -0.0357262 -0.039785 -0.0387139 -0.0357262 -0.0342101 -0.0387139 -0.0371122 -0.039785 -0.0387139 -0.0429433 -0.0418435 -0.0387139 -0.0371122 -0.0418435 -0.04017 -0.0277128 -0.0260515 -0.031193 -0.0293456 -0.0260515 -0.0240178 -0.0293456 -0.0270812 -0.031193 -0.0293456 -0.0342101 -0.0322141 -0.0293456 -0.0270812 -0.0322141 -0.0297592 -0.0240178 -0.0216424 -0.0270812 -0.0244331 -0.0216424 -0.0189705 -0.0244331 -0.0214503 -0.0270812 -0.0244331 -0.0297592 -0.0268797 -0.0244331 -0.0214503 -0.0268797 -0.0236273 -0.0342101 -0.0322141 -0.0371122 -0.0349879 -0.0322141 -0.0297592 -0.0349879 -0.0323604 -0.0371122 -0.0349879 -0.04017 -0.0379266 -0.0349879 -0.0323604 -0.0379266 -0.0351294 -0.0297592 -0.0268797 -0.0323604 -0.0292638 -0.0268797 -0.0236273 -0.0292638 -0.0257519 -0.0323604 -0.0292638 -0.0351294 -0.0318115 -0.0292638 -0.0257519 -0.0318115 -0.028028 -5.71514e-05 -4.32066e-05 -0.00669165 -0.00558768 -4.32066e-05 -2.80116e-05 -0.00558768 -0.00442675 -0.00669165 -0.00558768 -0.0119072 -0.0100069 -0.00558768 -0.00442675 -0.0100069 -0.00801329 -2.80116e-05 -1.18799e-05 -0.00442675 -0.00326122 -1.18799e-05 2.38847e-06 -0.00326122 -0.00214807 -0.00442675 -0.00326122 -0.00801329 -0.00601117 -0.00326122 -0.00214807 -0.00601117 -0.00409572 -0.0119072 -0.0100069 -0.015896 -0.0134205 -0.0100069 -0.00801329 -0.0134205 -0.0108237 -0.015896 -0.0134205 -0.0189705 -0.0160658 -0.0134205 -0.0108237 -0.0160658 -0.0130147 -0.00801329 -0.00601117 -0.0108237 -0.00820991 -0.00601117 -0.00409572 -0.00820991 -0.00569647 -0.0108237 -0.00820991 -0.0130147 -0.0099337 -0.00820991 -0.00569647 -0.0099337 -0.00695526 2.38847e-06 1.47864e-05 -0.00214807 -0.00123156 1.47864e-05 5.63922e-05 -0.00123156 -0.000263518 -0.00214807 -0.00123156 -0.00409572 -0.00246378 -0.00123156 -0.000263518 -0.00246378 -0.000873232 5.63922e-05 -1.47571e-05 -0.000263518 -0.00110091 -1.47571e-05 0.00888661 -0.00110091 0.00790798 -0.000263518 -0.00110091 -0.000873232 -0.00133572 -0.00110091 0.00790798 -0.00133572 0.00823717 -0.00409572 -0.00246378 -0.00569647 -0.00350496 -0.00246378 -0.000873232 -0.00350496 -0.00142019 -0.00569647 -0.00350496 -0.00695526 -0.00431928 -0.00350496 -0.00142019 -0.00431928 -0.00184182 -0.000873232 -0.00133572 -0.00142019 -0.00151511 -0.00133572 0.00823717 -0.00151511 0.00808556 -0.00142019 -0.00151511 -0.00184182 -0.00163099 -0.00151511 0.00808556 -0.00163099 0.00800122 -0.0189705 -0.0160658 -0.0214503 -0.0182022 -0.0160658 -0.0130147 -0.0182022 -0.0147829 -0.0214503 -0.0182022 -0.0236273 -0.0200761 -0.0182022 -0.0147829 -0.0200761 -0.0163276 -0.0130147 -0.0099337 -0.0147829 -0.011319 -0.0099337 -0.00695526 -0.011319 -0.00795636 -0.0147829 -0.011319 -0.0163276 -0.012519 -0.011319 -0.00795636 -0.012519 -0.00881113 -0.0236273 -0.0200761 -0.0257519 -0.0219035 -0.0200761 -0.0163276 -0.0219035 -0.0178285 -0.0257519 -0.0219035 -0.028028 -0.023863 -0.0219035 -0.0178285 -0.023863 -0.0194362 -0.0163276 -0.012519 -0.0178285 -0.0136767 -0.012519 -0.00881113 -0.0136767 -0.00962688 -0.0178285 -0.0136767 -0.0194362 -0.0149133 -0.0136767 -0.00962688 -0.0149133 -0.0104944 -0.00695526 -0.00431928 -0.00795636 -0.00495417 -0.00431928 -0.00184182 -0.00495417 -0.0021571 -0.00795636 -0.00495417 -0.00881113 -0.00548513 -0.00495417 -0.0021571 -0.00548513 -0.00241118 -0.00184182 -0.00163099 -0.0021571 -0.00171782 -0.00163099 0.00800122 -0.00171782 0.00799282 -0.0021571 -0.00171782 -0.00241118 -0.00179558 -0.00171782 0.00799282 -0.00179558 0.00805461 -0.00881113 -0.00548513 -0.00962688 -0.00598519 -0.00548513 -0.00241118 -0.00598519 -0.00264429 -0.00962688 -0.00598519 -0.0104944 -0.00651484 -0.00598519 -0.00264429 -0.00651484 -0.00288839 -0.00241118 -0.00179558 -0.00264429 -0.00187676 -0.00179558 0.00805461 -0.00187676 0.00818954 -0.00264429 -0.00187676 -0.00288839 -0.00197129 -0.00187676 0.00818954 -0.00197129 0.00839734 -0.0434486 -0.0434744 -0.0468451 -0.0469364 -0.0434744 -0.0429433 -0.0469364 -0.0464344 -0.0468451 -0.0469364 -0.0506772 -0.050858 -0.0469364 -0.0464344 -0.050858 -0.0504075 -0.0429433 -0.0418435 -0.0464344 -0.0453218 -0.0418435 -0.04017 -0.0453218 -0.0435873 -0.0464344 -0.0453218 -0.0504075 -0.0493008 -0.0453218 -0.0435873 -0.0493008 -0.0475181 -0.0506772 -0.050858 -0.0550425 -0.0553421 -0.050858 -0.0504075 -0.0553421 -0.0549713 -0.0550425 -0.0553421 -0.0600086 -0.0604629 -0.0553421 -0.0549713 -0.0604629 -0.0602088 -0.0504075 -0.0493008 -0.0549713 -0.0538958 -0.0493008 -0.0475181 -0.0538958 -0.0520842 -0.0549713 -0.0538958 -0.0602088 -0.0592001 -0.0538958 -0.0520842 -0.0592001 -0.0573905 -0.04017 -0.0379266 -0.0435873 -0.0412287 -0.0379266 -0.0351294 -0.0412287 -0.0382568 -0.0435873 -0.0412287 -0.0475181 -0.0450483 -0.0412287 -0.0382568 -0.0450483 -0.0418945 -0.0351294 -0.0318115 -0.0382568 -0.0347019 -0.0318115 -0.028028 -0.0347019 -0.0306196 -0.0382568 -0.0347019 -0.0418945 -0.0380814 -0.0347019 -0.0306196 -0.0380814 -0.0336642 -0.0475181 -0.0450483 -0.0520842 -0.049513 -0.0450483 -0.0418945 -0.049513 -0.0461736 -0.0520842 -0.049513 -0.0573905 -0.0547395 -0.049513 -0.0461736 -0.0547395 -0.051221 -0.0418945 -0.0380814 -0.0461736 -0.0420817 -0.0380814 -0.0336642 -0.0420817 -0.0372891 -0.0461736 -0.0420817 -0.051221 -0.0468361 -0.0420817 -0.0372891 -0.0468361 -0.0416288 -0.0600086 -0.0604629 -0.0656229 -0.0662757 -0.0604629 -0.0602088 -0.0662757 -0.0661866 -0.0656229 -0.0662757 -0.0719167 -0.0728209 -0.0662757 -0.0661866 -0.0728209 -0.0729591 -0.0602088 -0.0592001 -0.0661866 -0.0652953 -0.0592001 -0.0573905 -0.0652953 -0.0635361 -0.0661866 -0.0652953 -0.0729591 -0.0722547 -0.0652953 -0.0635361 -0.0722547 -0.0706187 -0.0719167 -0.0728209 -0.0789043 -0.0801214 -0.0728209 -0.0729591 -0.0801214 -0.0805649 -0.0789043 -0.0801214 -0.0865757 -0.0881739 -0.0801214 -0.0805649 -0.0881739 -0.0890163 -0.0729591 -0.0722547 -0.0805649 -0.0801408 -0.0722547 -0.0706187 -0.0801408 -0.0787321 -0.0805649 -0.0801408 -0.0890163 -0.0889922 -0.0801408 -0.0787321 -0.0889922 -0.0879539 -0.0573905 -0.0547395 -0.0635361 -0.0608455 -0.0547395 -0.051221 -0.0608455 -0.0571725 -0.0635361 -0.0608455 -0.0706187 -0.0679566 -0.0608455 -0.0571725 -0.0679566 -0.0641822 -0.051221 -0.0468361 -0.0571725 -0.0524951 -0.0468361 -0.0416288 -0.0524951 -0.0468413 -0.0571725 -0.0524951 -0.0641822 -0.0592384 -0.0524951 -0.0468413 -0.0592384 -0.0531245 -0.0706187 -0.0679566 -0.0787321 -0.0762054 -0.0679566 -0.0641822 -0.0762054 -0.0724262 -0.0787321 -0.0762054 -0.0879539 -0.0857209 -0.0762054 -0.0724262 -0.0857209 -0.08209