# vtk DataFile Version 3.0
#This file was generated by the deal.II library on 2026/1/5 at 14:19:39
ASCII
DATASET UNSTRUCTURED_GRID

POINTS 4096 double
0 0 0
0.03125 0 0
0 0.03125 0
0.03125 0.03125 0
0.03125 0 0
0.0625 0 0
0.03125 0.03125 0
0.0625 0.03125 0
0 0.03125 0
0.03125 0.03125 0
0 0.0625 0
0.03125 0.0625 0
0.03125 0.03125 0
0.0625 0.03125 0
0.03125 0.0625 0
0.0625 0.0625 0
0.0625 0 0
0.09375 0 0
0.0625 0.03125 0
0.09375 0.03125 0
0.09375 0 0
0.125 0 0
0.09375 0.03125 0
0.125 0.03125 0
0.0625 0.03125 0
0.09375 0.03125 0
0.0625 0.0625 0
0.09375 0.0625 0
0.09375 0.03125 0
0.125 0.03125 0
0.09375 0.0625 0
0.125 0.0625 0
0 0.0625 0
0.03125 0.0625 0
0 0.09375 0
0.03125 0.09375 0
0.03125 0.0625 0
0.0625 0.0625 0
0.03125 0.09375 0
0.0625 0.09375 0
0 0.09375 0
0.03125 0.09375 0
0 0.125 0
0.03125 0.125 0
0.03125 0.09375 0
0.0625 0.09375 0
0.03125 0.125 0
0.0625 0.125 0
0.0625 0.0625 0
0.09375 0.0625 0
0.0625 0.09375 0
0.09375 0.09375 0
0.09375 0.0625 0
0.125 0.0625 0
0.09375 0.09375 0
0.125 0.09375 0
0.0625 0.09375 0
0.09375 0.09375 0
0.0625 0.125 0
0.09375 0.125 0
0.09375 0.09375 0
0.125 0.09375 0
0.09375 0.125 0
0.125 0.125 0
0.125 0 0
0.15625 0 0
0.125 0.03125 0
0.15625 0.03125 0
0.15625 0 0
0.1875 0 0
0.15625 0.03125 0
0.1875 0.03125 0
0.125 0.03125 0
0.15625 0.03125 0
0.125 0.0625 0
0.15625 0.0625 0
0.15625 0.03125 0
0.1875 0.03125 0
0.15625 0.0625 0
0.1875 0.0625 0
0.1875 0 0
0.21875 0 0
0.1875 0.03125 0
0.21875 0.03125 0
0.21875 0 0
0.25 0 0
0.21875 0.03125 0
0.25 0.03125 0
0.1875 0.03125 0
0.21875 0.03125 0
0.1875 0.0625 0
0.21875 0.0625 0
0.21875 0.03125 0
0.25 0.03125 0
0.21875 0.0625 0
0.25 0.0625 0
0.125 0.0625 0
0.15625 0.0625 0
0.125 0.09375 0
0.15625 0.09375 0
0.15625 0.0625 0
0.1875 0.0625 0
0.15625 0.09375 0
0.1875 0.09375 0
0.125 0.09375 0
0.15625 0.09375 0
0.125 0.125 0
0.15625 0.125 0
0.15625 0.09375 0
0.1875 0.09375 0
0.15625 0.125 0
0.1875 0.125 0
0.1875 0.0625 0
0.21875 0.0625 0
0.1875 0.09375 0
0.21875 0.09375 0
0.21875 0.0625 0
0.25 0.0625 0
0.21875 0.09375 0
0.25 0.09375 0
0.1875 0.09375 0
0.21875 0.09375 0
0.1875 0.125 0
0.21875 0.125 0
0.21875 0.09375 0
0.25 0.09375 0
0.21875 0.125 0
0.25 0.125 0
0 0.125 0
0.03125 0.125 0
0 0.15625 0
0.03125 0.15625 0
0.03125 0.125 0
0.0625 0.125 0
0.03125 0.15625 0
0.0625 0.15625 0
0 0.15625 0
0.03125 0.15625 0
0 0.1875 0
0.03125 0.1875 0
0.03125 0.15625 0
0.0625 0.15625 0
0.03125 0.1875 0
0.0625 0.1875 0
0.0625 0.125 0
0.09375 0.125 0
0.0625 0.15625 0
0.09375 0.15625 0
0.09375 0.125 0
0.125 0.125 0
0.09375 0.15625 0
0.125 0.15625 0
0.0625 0.15625 0
0.09375 0.15625 0
0.0625 0.1875 0
0.09375 0.1875 0
0.09375 0.15625 0
0.125 0.15625 0
0.09375 0.1875 0
0.125 0.1875 0
0 0.1875 0
0.03125 0.1875 0
0 0.21875 0
0.03125 0.21875 0
0.03125 0.1875 0
0.0625 0.1875 0
0.03125 0.21875 0
0.0625 0.21875 0
0 0.21875 0
0.03125 0.21875 0
0 0.25 0
0.03125 0.25 0
0.03125 0.21875 0
0.0625 0.21875 0
0.03125 0.25 0
0.0625 0.25 0
0.0625 0.1875 0
0.09375 0.1875 0
0.0625 0.21875 0
0.09375 0.21875 0
0.09375 0.1875 0
0.125 0.1875 0
0.09375 0.21875 0
0.125 0.21875 0
0.0625 0.21875 0
0.09375 0.21875 0
0.0625 0.25 0
0.09375 0.25 0
0.09375 0.21875 0
0.125 0.21875 0
0.09375 0.25 0
0.125 0.25 0
0.125 0.125 0
0.15625 0.125 0
0.125 0.15625 0
0.15625 0.15625 0
0.15625 0.125 0
0.1875 0.125 0
0.15625 0.15625 0
0.1875 0.15625 0
0.125 0.15625 0
0.15625 0.15625 0
0.125 0.1875 0
0.15625 0.1875 0
0.15625 0.15625 0
0.1875 0.15625 0
0.15625 0.1875 0
0.1875 0.1875 0
0.1875 0.125 0
0.21875 0.125 0
0.1875 0.15625 0
0.21875 0.15625 0
0.21875 0.125 0
0.25 0.125 0
0.21875 0.15625 0
0.25 0.15625 0
0.1875 0.15625 0
0.21875 0.15625 0
0.1875 0.1875 0
0.21875 0.1875 0
0.21875 0.15625 0
0.25 0.15625 0
0.21875 0.1875 0
0.25 0.1875 0
0.125 0.1875 0
0.15625 0.1875 0
0.125 0.21875 0
0.15625 0.21875 0
0.15625 0.1875 0
0.1875 0.1875 0
0.15625 0.21875 0
0.1875 0.21875 0
0.125 0.21875 0
0.15625 0.21875 0
0.125 0.25 0
0.15625 0.25 0
0.15625 0.21875 0
0.1875 0.21875 0
0.15625 0.25 0
0.1875 0.25 0
0.1875 0.1875 0
0.21875 0.1875 0
0.1875 0.21875 0
0.21875 0.21875 0
0.21875 0.1875 0
0.25 0.1875 0
0.21875 0.21875 0
0.25 0.21875 0
0.1875 0.21875 0
0.21875 0.21875 0
0.1875 0.25 0
0.21875 0.25 0
0.21875 0.21875 0
0.25 0.21875 0
0.21875 0.25 0
0.25 0.25 0
0.25 0 0
0.28125 0 0
0.25 0.03125 0
0.28125 0.03125 0
0.28125 0 0
0.3125 0 0
0.28125 0.03125 0
0.3125 0.03125 0
0.25 0.03125 0
0.28125 0.03125 0
0.25 0.0625 0
0.28125 0.0625 0
0.28125 0.03125 0
0.3125 0.03125 0
0.28125 0.0625 0
0.3125 0.0625 0
0.3125 0 0
0.34375 0 0
0.3125 0.03125 0
0.34375 0.03125 0
0.34375 0 0
0.375 0 0
0.34375 0.03125 0
0.375 0.03125 0
0.3125 0.03125 0
0.34375 0.03125 0
0.3125 0.0625 0
0.34375 0.0625 0
0.34375 0.03125 0
0.375 0.03125 0
0.34375 0.0625 0
0.375 0.0625 0
0.25 0.0625 0
0.28125 0.0625 0
0.25 0.09375 0
0.28125 0.09375 0
0.28125 0.0625 0
0.3125 0.0625 0
0.28125 0.09375 0
0.3125 0.09375 0
0.25 0.09375 0
0.28125 0.09375 0
0.25 0.125 0
0.28125 0.125 0
0.28125 0.09375 0
0.3125 0.09375 0
0.28125 0.125 0
0.3125 0.125 0
0.3125 0.0625 0
0.34375 0.0625 0
0.3125 0.09375 0
0.34375 0.09375 0
0.34375 0.0625 0
0.375 0.0625 0
0.34375 0.09375 0
0.375 0.09375 0
0.3125 0.09375 0
0.34375 0.09375 0
0.3125 0.125 0
0.34375 0.125 0
0.34375 0.09375 0
0.375 0.09375 0
0.34375 0.125 0
0.375 0.125 0
0.375 0 0
0.40625 0 0
0.375 0.03125 0
0.40625 0.03125 0
0.40625 0 0
0.4375 0 0
0.40625 0.03125 0
0.4375 0.03125 0
0.375 0.03125 0
0.40625 0.03125 0
0.375 0.0625 0
0.40625 0.0625 0
0.40625 0.03125 0
0.4375 0.03125 0
0.40625 0.0625 0
0.4375 0.0625 0
0.4375 0 0
0.46875 0 0
0.4375 0.03125 0
0.46875 0.03125 0
0.46875 0 0
0.5 0 0
0.46875 0.03125 0
0.5 0.03125 0
0.4375 0.03125 0
0.46875 0.03125 0
0.4375 0.0625 0
0.46875 0.0625 0
0.46875 0.03125 0
0.5 0.03125 0
0.46875 0.0625 0
0.5 0.0625 0
0.375 0.0625 0
0.40625 0.0625 0
0.375 0.09375 0
0.40625 0.09375 0
0.40625 0.0625 0
0.4375 0.0625 0
0.40625 0.09375 0
0.4375 0.09375 0
0.375 0.09375 0
0.40625 0.09375 0
0.375 0.125 0
0.40625 0.125 0
0.40625 0.09375 0
0.4375 0.09375 0
0.40625 0.125 0
0.4375 0.125 0
0.4375 0.0625 0
0.46875 0.0625 0
0.4375 0.09375 0
0.46875 0.09375 0
0.46875 0.0625 0
0.5 0.0625 0
0.46875 0.09375 0
0.5 0.09375 0
0.4375 0.09375 0
0.46875 0.09375 0
0.4375 0.125 0
0.46875 0.125 0
0.46875 0.09375 0
0.5 0.09375 0
0.46875 0.125 0
0.5 0.125 0
0.25 0.125 0
0.28125 0.125 0
0.25 0.15625 0
0.28125 0.15625 0
0.28125 0.125 0
0.3125 0.125 0
0.28125 0.15625 0
0.3125 0.15625 0
0.25 0.15625 0
0.28125 0.15625 0
0.25 0.1875 0
0.28125 0.1875 0
0.28125 0.15625 0
0.3125 0.15625 0
0.28125 0.1875 0
0.3125 0.1875 0
0.3125 0.125 0
0.34375 0.125 0
0.3125 0.15625 0
0.34375 0.15625 0
0.34375 0.125 0
0.375 0.125 0
0.34375 0.15625 0
0.375 0.15625 0
0.3125 0.15625 0
0.34375 0.15625 0
0.3125 0.1875 0
0.34375 0.1875 0
0.34375 0.15625 0
0.375 0.15625 0
0.34375 0.1875 0
0.375 0.1875 0
0.25 0.1875 0
0.28125 0.1875 0
0.25 0.21875 0
0.28125 0.21875 0
0.28125 0.1875 0
0.3125 0.1875 0
0.28125 0.21875 0
0.3125 0.21875 0
0.25 0.21875 0
0.28125 0.21875 0
0.25 0.25 0
0.28125 0.25 0
0.28125 0.21875 0
0.3125 0.21875 0
0.28125 0.25 0
0.3125 0.25 0
0.3125 0.1875 0
0.34375 0.1875 0
0.3125 0.21875 0
0.34375 0.21875 0
0.34375 0.1875 0
0.375 0.1875 0
0.34375 0.21875 0
0.375 0.21875 0
0.3125 0.21875 0
0.34375 0.21875 0
0.3125 0.25 0
0.34375 0.25 0
0.34375 0.21875 0
0.375 0.21875 0
0.34375 0.25 0
0.375 0.25 0
0.375 0.125 0
0.40625 0.125 0
0.375 0.15625 0
0.40625 0.15625 0
0.40625 0.125 0
0.4375 0.125 0
0.40625 0.15625 0
0.4375 0.15625 0
0.375 0.15625 0
0.40625 0.15625 0
0.375 0.1875 0
0.40625 0.1875 0
0.40625 0.15625 0
0.4375 0.15625 0
0.40625 0.1875 0
0.4375 0.1875 0
0.4375 0.125 0
0.46875 0.125 0
0.4375 0.15625 0
0.46875 0.15625 0
0.46875 0.125 0
0.5 0.125 0
0.46875 0.15625 0
0.5 0.15625 0
0.4375 0.15625 0
0.46875 0.15625 0
0.4375 0.1875 0
0.46875 0.1875 0
0.46875 0.15625 0
0.5 0.15625 0
0.46875 0.1875 0
0.5 0.1875 0
0.375 0.1875 0
0.40625 0.1875 0
0.375 0.21875 0
0.40625 0.21875 0
0.40625 0.1875 0
0.4375 0.1875 0
0.40625 0.21875 0
0.4375 0.21875 0
0.375 0.21875 0
0.40625 0.21875 0
0.375 0.25 0
0.40625 0.25 0
0.40625 0.21875 0
0.4375 0.21875 0
0.40625 0.25 0
0.4375 0.25 0
0.4375 0.1875 0
0.46875 0.1875 0
0.4375 0.21875 0
0.46875 0.21875 0
0.46875 0.1875 0
0.5 0.1875 0
0.46875 0.21875 0
0.5 0.21875 0
0.4375 0.21875 0
0.46875 0.21875 0
0.4375 0.25 0
0.46875 0.25 0
0.46875 0.21875 0
0.5 0.21875 0
0.46875 0.25 0
0.5 0.25 0
0 0.25 0
0.03125 0.25 0
0 0.28125 0
0.03125 0.28125 0
0.03125 0.25 0
0.0625 0.25 0
0.03125 0.28125 0
0.0625 0.28125 0
0 0.28125 0
0.03125 0.28125 0
0 0.3125 0
0.03125 0.3125 0
0.03125 0.28125 0
0.0625 0.28125 0
0.03125 0.3125 0
0.0625 0.3125 0
0.0625 0.25 0
0.09375 0.25 0
0.0625 0.28125 0
0.09375 0.28125 0
0.09375 0.25 0
0.125 0.25 0
0.09375 0.28125 0
0.125 0.28125 0
0.0625 0.28125 0
0.09375 0.28125 0
0.0625 0.3125 0
0.09375 0.3125 0
0.09375 0.28125 0
0.125 0.28125 0
0.09375 0.3125 0
0.125 0.3125 0
0 0.3125 0
0.03125 0.3125 0
0 0.34375 0
0.03125 0.34375 0
0.03125 0.3125 0
0.0625 0.3125 0
0.03125 0.34375 0
0.0625 0.34375 0
0 0.34375 0
0.03125 0.34375 0
0 0.375 0
0.03125 0.375 0
0.03125 0.34375 0
0.0625 0.34375 0
0.03125 0.375 0
0.0625 0.375 0
0.0625 0.3125 0
0.09375 0.3125 0
0.0625 0.34375 0
0.09375 0.34375 0
0.09375 0.3125 0
0.125 0.3125 0
0.09375 0.34375 0
0.125 0.34375 0
0.0625 0.34375 0
0.09375 0.34375 0
0.0625 0.375 0
0.09375 0.375 0
0.09375 0.34375 0
0.125 0.34375 0
0.09375 0.375 0
0.125 0.375 0
0.125 0.25 0
0.15625 0.25 0
0.125 0.28125 0
0.15625 0.28125 0
0.15625 0.25 0
0.1875 0.25 0
0.15625 0.28125 0
0.1875 0.28125 0
0.125 0.28125 0
0.15625 0.28125 0
0.125 0.3125 0
0.15625 0.3125 0
0.15625 0.28125 0
0.1875 0.28125 0
0.15625 0.3125 0
0.1875 0.3125 0
0.1875 0.25 0
0.21875 0.25 0
0.1875 0.28125 0
0.21875 0.28125 0
0.21875 0.25 0
0.25 0.25 0
0.21875 0.28125 0
0.25 0.28125 0
0.1875 0.28125 0
0.21875 0.28125 0
0.1875 0.3125 0
0.21875 0.3125 0
0.21875 0.28125 0
0.25 0.28125 0
0.21875 0.3125 0
0.25 0.3125 0
0.125 0.3125 0
0.15625 0.3125 0
0.125 0.34375 0
0.15625 0.34375 0
0.15625 0.3125 0
0.1875 0.3125 0
0.15625 0.34375 0
0.1875 0.34375 0
0.125 0.34375 0
[...]
POINT_DATA 4096
SCALARS u_x double 1
LOOKUP_TABLE default
-2.60411e-06 1.38511e-05 -4.88331e-05 -3.64243e-05 1.38511e-05 2.32876e-05 -3.64243e-05 -0.000332593 -4.88331e-05 -3.64243e-05 -0.000174139 -0.000195757 -3.64243e-05 -0.000332593 -0.000195757 -0.000904584 2.32876e-05 2.21763e-05 -0.000332593 -0.000915601 2.21763e-05 1.44558e-05 -0.000915601 -0.00175513 -0.000332593 -0.000915601 -0.000904584 -0.00205468 -0.000915601 -0.00175513 -0.00205468 -0.00360608 -0.000174139 -0.000195757 -0.000320156 -0.000356169 -0.000195757 -0.000904584 -0.000356169 -0.00148443 -0.000320156 -0.000356169 -0.000438931 -0.000492935 -0.000356169 -0.00148443 -0.000492935 -0.00199458 -0.000904584 -0.00205468 -0.00148443 -0.00316777 -0.00205468 -0.00360608 -0.00316777 -0.00534533 -0.00148443 -0.00316777 -0.00199458 -0.0041575 -0.00316777 -0.00534533 -0.0041575 -0.00688777 1.44558e-05 3.61617e-06 -0.00175513 -0.00277661 3.61617e-06 -8.3669e-06 -0.00277661 -0.00390743 -0.00175513 -0.00277661 -0.00360608 -0.00544592 -0.00277661 -0.00390743 -0.00544592 -0.00746384 -8.3669e-06 -2.04758e-05 -0.00390743 -0.00508488 -2.04758e-05 -3.21809e-05 -0.00508488 -0.0062585 -0.00390743 -0.00508488 -0.00746384 -0.00955852 -0.00508488 -0.0062585 -0.00955852 -0.0116448 -0.00360608 -0.00544592 -0.00534533 -0.00787018 -0.00544592 -0.00746384 -0.00787018 -0.0106084 -0.00534533 -0.00787018 -0.00688777 -0.010002 -0.00787018 -0.0106084 -0.010002 -0.0133455 -0.00746384 -0.00955852 -0.0106084 -0.013435 -0.00955852 -0.0116448 -0.013435 -0.0162424 -0.0106084 -0.013435 -0.0133455 -0.0167759 -0.013435 -0.0162424 -0.0167759 -0.0201706 -0.000438931 -0.000492935 -0.000504218 -0.000608728 -0.000492935 -0.00199458 -0.000608728 -0.0024244 -0.000504218 -0.000608728 -0.000501403 -0.000712312 -0.000608728 -0.0024244 -0.000712312 -0.00278848 -0.00199458 -0.0041575 -0.0024244 -0.00500937 -0.0041575 -0.00688777 -0.00500937 -0.00822771 -0.0024244 -0.00500937 -0.00278848 -0.00574732 -0.00500937 -0.00822771 -0.00574732 -0.00940204 -0.000501403 -0.000712312 -0.000421493 -0.000812577 -0.000712312 -0.00278848 -0.000812577 -0.00310814 -0.000421493 -0.000812577 -0.000258158 -0.000917396 -0.000812577 -0.00310814 -0.000917396 -0.00340489 -0.00278848 -0.00574732 -0.00310814 -0.00640879 -0.00574732 -0.00940204 -0.00640879 -0.0104652 -0.00310814 -0.00640879 -0.00340489 -0.00703333 -0.00640879 -0.0104652 -0.00703333 -0.0114754 -0.00688777 -0.010002 -0.00822771 -0.0118597 -0.010002 -0.0133455 -0.0118597 -0.0157288 -0.00822771 -0.0118597 -0.00940204 -0.0134999 -0.0118597 -0.0157288 -0.0134999 -0.0178416 -0.0133455 -0.0167759 -0.0157288 -0.0196772 -0.0167759 -0.0201706 -0.0196772 -0.0235709 -0.0157288 -0.0196772 -0.0178416 -0.0222541 -0.0196772 -0.0235709 -0.0222541 -0.026593 -0.00940204 -0.0134999 -0.0104652 -0.0149969 -0.0134999 -0.0178416 -0.0149969 -0.0197808 -0.0104652 -0.0149969 -0.0114754 -0.0164281 -0.0149969 -0.0197808 -0.0164281 -0.0216441 -0.0178416 -0.0222541 -0.0197808 -0.0246288 -0.0222541 -0.026593 -0.0246288 -0.0293865 -0.0197808 -0.0246288 -0.0216441 -0.02692 -0.0246288 -0.0293865 -0.02692 -0.0320918 -3.21809e-05 -4.32197e-05 -0.0062585 -0.00738878 -4.32197e-05 -5.34595e-05 -0.00738878 -0.00844486 -0.0062585 -0.00738878 -0.0116448 -0.0136537 -0.00738878 -0.00844486 -0.0136537 -0.0155297 -5.34595e-05 -6.28155e-05 -0.00844486 -0.00940214 -6.28155e-05 -7.12034e-05 -0.00940214 -0.0102403 -0.00844486 -0.00940214 -0.0155297 -0.0172279 -0.00940214 -0.0102403 -0.0172279 -0.0187112 -0.0116448 -0.0136537 -0.0162424 -0.0189411 -0.0136537 -0.0155297 -0.0189411 -0.0214582 -0.0162424 -0.0189411 -0.0201706 -0.0234267 -0.0189411 -0.0214582 -0.0234267 -0.026459 -0.0155297 -0.0172279 -0.0214582 -0.0237336 -0.0172279 -0.0187112 -0.0237336 -0.0257172 -0.0214582 -0.0237336 -0.026459 -0.0291969 -0.0237336 -0.0257172 -0.0291969 -0.031581 -7.12034e-05 -7.85139e-05 -0.0102403 -0.0109416 -7.85139e-05 -8.46033e-05 -0.0109416 -0.0114903 -0.0102403 -0.0109416 -0.0187112 -0.0199478 -0.0109416 -0.0114903 -0.0199478 -0.0209096 -8.46033e-05 -8.92937e-05 -0.0114903 -0.0118721 -8.92937e-05 -9.23805e-05 -0.0118721 -0.0120744 -0.0114903 -0.0118721 -0.0209096 -0.0215718 -0.0118721 -0.0120744 -0.0215718 -0.0219131 -0.0187112 -0.0199478 -0.0257172 -0.0273662 -0.0199478 -0.0209096 -0.0273662 -0.0286436 -0.0257172 -0.0273662 -0.031581 -0.0335606 -0.0273662 -0.0286436 -0.0335606 -0.0350914 -0.0209096 -0.0215718 -0.0286436 -0.0295167 -0.0215718 -0.0219131 -0.0295167 -0.0299579 -0.0286436 -0.0295167 -0.0350914 -0.0361351 -0.0295167 -0.0299579 -0.0361351 -0.0366589 -0.0201706 -0.0234267 -0.0235709 -0.0272974 -0.0234267 -0.026459 -0.0272974 -0.0307633 -0.0235709 -0.0272974 -0.026593 -0.0307386 -0.0272974 -0.0307633 -0.0307386 -0.0345917 -0.026459 -0.0291969 -0.0307633 -0.0338909 -0.0291969 -0.031581 -0.0338909 -0.0366144 -0.0307633 -0.0338909 -0.0345917 -0.0380699 -0.0338909 -0.0366144 -0.0380699 -0.0411029 -0.026593 -0.0307386 -0.0293865 -0.0339279 -0.0307386 -0.0345917 -0.0339279 -0.0381498 -0.0293865 -0.0339279 -0.0320918 -0.0370278 -0.0339279 -0.0381498 -0.0370278 -0.0416214 -0.0345917 -0.0380699 -0.0381498 -0.0419663 -0.0380699 -0.0411029 -0.0419663 -0.0453042 -0.0381498 -0.0419663 -0.0416214 -0.0457849 -0.0419663 -0.0453042 -0.0457849 -0.0494429 -0.031581 -0.0335606 -0.0366144 -0.0388771 -0.0335606 -0.0350914 -0.0388771 -0.0406294 -0.0366144 -0.0388771 -0.0411029 -0.0436297 -0.0388771 -0.0406294 -0.0436297 -0.0455962 -0.0350914 -0.0361351 -0.0406294 -0.0418279 -0.0361351 -0.0366589 -0.0418279 -0.0424351 -0.0406294 -0.0418279 -0.0455962 -0.0469541 -0.0418279 -0.0424351 -0.0469541 -0.0476609 -0.0411029 -0.0436297 -0.0453042 -0.0480991 -0.0436297 -0.0455962 -0.0480991 -0.050293 -0.0453042 -0.0480991 -0.0494429 -0.0525285 -0.0480991 -0.050293 -0.0525285 -0.0549798 -0.0455962 -0.0469541 -0.050293 -0.0518324 -0.0469541 -0.0476609 -0.0518324 -0.052669 -0.050293 -0.0518324 -0.0549798 -0.056738 -0.0518324 -0.052669 -0.056738 -0.0577474 -0.000258158 -0.000917396 -6.00756e-06 -0.00103344 -0.000917396 -0.00340489 -0.00103344 -0.00369796 -6.00756e-06 -0.00103344 0.000340432 -0.00116636 -0.00103344 -0.00369796 -0.00116636 -0.00400371 -0.00340489 -0.00703333 -0.00369796 -0.00765749 -0.00703333 -0.0114754 -0.00765749 -0.0124872 -0.00369796 -0.00765749 -0.00400371 -0.00831311 -0.00765749 -0.0124872 -0.00831311 -0.0135487 0.000340432 -0.00116636 0.000787416 -0.00132102 -0.00116636 -0.00400371 -0.00132102 -0.00433585 0.000787416 -0.00132102 0.00134243 -0.0015019 -0.00132102 -0.00433585 -0.0015019 -0.00470622 -0.00400371 -0.00831311 -0.00433585 -0.00902735 -0.00831311 -0.0135487 -0.00902735 -0.0147012 -0.00433585 -0.00902735 -0.00470622 -0.00982372 -0.00902735 -0.0147012 -0.00982372 -0.01598 -0.0114754 -0.0164281 -0.0124872 -0.0178661 -0.0164281 -0.0216441 -0.0178661 -0.0235217 -0.0124872 -0.0178661 -0.0135487 -0.0193748 -0.0178661 -0.0235217 -0.0193748 -0.0254926 -0.0216441 -0.02692 -0.0235217 -0.0292354 -0.02692 -0.0320918 -0.0292354 -0.0348337 -0.0235217 -0.0292354 -0.0254926 -0.0316679 -0.0292354 -0.0348337 -0.0316679 -0.0377177 -0.0135487 -0.0193748 -0.0147012 -0.0210091 -0.0193748 -0.0254926 -0.0210091 -0.0276234 -0.0147012 -0.0210091 -0.01598 -0.0228151 -0.0210091 -0.0276234 -0.0228151 -0.0299695 -0.0254926 -0.0316679 -0.0276234 -0.0342943 -0.0316679 -0.0377177 -0.0342943 -0.0408296 -0.0276234 -0.0342943 -0.0299695 -0.0371769 -0.0342943 -0.0408296 -0.0371769 -0.0442365 0.00134243 -0.0015019 0.00201446 -0.0017134 -0.0015019 -0.00470622 -0.0017134 -0.0051257 0.00201446 -0.0017134 0.00281429 -0.00196035 -0.0017134 -0.0051257 -0.00196035 -0.00560541 -0.00470622 -0.00982372 -0.0051257 -0.0107238 -0.00982372 -0.01598 -0.0107238 -0.0174171 -0.0051257 -0.0107238 -0.00560541 -0.0117491 -0.0107238 -0.0174171 -0.0117491 -0.0190433 0.00281429 -0.00196035 0.00375482 -0.0022484 -0.00196035 -0.00560541 -0.0022484 -0.00615802 0.00375482 -0.0022484 0.00485158 -0.00258466 -0.0022484 -0.00615802 -0.00258466 -0.0067992 -0.00560541 -0.0117491 -0.00615802 -0.0129236 -0.0117491 -0.0190433 -0.0129236 -0.0208914 -0.00615802 -0.0129236 -0.0067992 -0.0142756 -0.0129236 -0.0208914 -0.0142756 -0.0229988 -0.01598 -0.0228151 -0.0174171 -0.0248337 -0.0228151 -0.0299695 -0.0248337 -0.0325778 -0.0174171 -0.0248337 -0.0190433 -0.0271024 -0.0248337 -0.0325778 -0.0271024 -0.0354891 -0.0299695 -0.0371769 -0.0325778 -0.0403658 -0.0371769 -0.0442365 -0.0403658 -0.0479891 -0.0325778 -0.0403658 -0.0354891 -0.0439014 -0.0403658 -0.0479891 -0.0439014 -0.0521235 -0.0190433 -0.0271024 -0.0208914 -0.0296591 -0.0271024 -0.0354891 -0.0296591 -0.0387411 -0.0208914 -0.0296591 -0.0229988 -0.0325439 -0.0296591 -0.0387411 -0.0325439 -0.0423703 -0.0354891 -0.0439014 -0.0387411 -0.0478163 -0.0439014 -0.0521235 -0.0478163 -0.0566628 -0.0387411 -0.0478163 -0.0423703 -0.0521359 -0.0478163 -0.0566628 -0.0521359 -0.0616152 -0.0320918 -0.0370278 -0.0348337 -0.0401796 -0.0370278 -0.0416214 -0.0401796 -0.0451643 -0.0348337 -0.0401796 -0.0377177 -0.0435008 -0.0401796 -0.0451643 -0.0435008 -0.0489072 -0.0416214 -0.0457849 -0.0451643 -0.0496989 -0.0457849 -0.0494429 -0.0496989 -0.0537073 -0.0451643 -0.0496989 -0.0489072 -0.0538482 -0.0496989 -0.0537073 -0.0538482 -0.058248 -0.0377177 -0.0435008 -0.0408296 -0.0470848 -0.0435008 -0.0489072 -0.0470848 -0.0529502 -0.0408296 -0.0470848 -0.0442365 -0.0510019 -0.0470848 -0.0529502 -0.0510019 -0.0573655 -0.0489072 -0.0538482 -0.0529502 -0.058339 -0.0538482 -0.058248 -0.058339 -0.0631779 -0.0529502 -0.058339 -0.0573655 -0.0632452 -0.058339 -0.0631779 -0.0632452 -0.0685727 -0.0494429 -0.0525285 -0.0537073 -0.0571207 -0.0525285 -0.0549798 -0.0571207 -0.0598736 -0.0537073 -0.0571207 -0.058248 -0.0620372 -0.0571207 -0.0598736 -0.0620372 -0.0651474 -0.0549798 -0.056738 -0.0598736 -0.0619014 -0.056738 -0.0577474 -0.0619014 -0.06314 -0.0598736 -0.0619014 -0.0651474 -0.0675082 -0.0619014 -0.06314 -0.0675082 -0.0690461 -0.058248 -0.0620372 -0.0631779 -0.0673983 -0.0620372 -0.0651474 -0.0673983 -0.0709305 -0.0631779 -0.0673983 -0.0685727 -0.0732831 -0.0673983 -0.0709305 -0.0732831 -0.0773079 -0.0651474 -0.0675082 -0.0709305 -0.0736992 -0.0675082 -0.0690461 -0.0736992 -0.0756207 -0.0709305 -0.0736992 -0.0773079 -0.0805684 -0.0736992 -0.0756207 -0.0805684 -0.0829721 -0.0442365 -0.0510019 -0.0479891 -0.055301 -0.0510019 -0.0573655 -0.055301 -0.062199 -0.0479891 -0.055301 -0.0521235 -0.0600113 -0.055301 -0.062199 -0.0600113 -0.0674708 -0.0573655 -0.0632452 -0.062199 -0.0686089 -0.0632452 -0.0685727 -0.0686089 -0.074471 -0.062199 -0.0686089 -0.0674708 -0.0744396 -0.0686089 -0.074471 -0.0744396 -0.0808713 -0.0521235 -0.0600113 -0.0566628 -0.0651421 -0.0600113 -0.0674708 -0.0651421 -0.073173 -0.0566628 -0.0651421 -0.0616152 -0.0706792 -0.0651421 -0.073173 -0.0706792 -0.0792643 -0.0674708 -0.0744396 -0.073173 -0.08071 -0.0744396 -0.0808713 -0.08071 -0.0877258 -0.073173 -0.08071 -0.0792643 -0.087348 -0.08071 -0.0877258 -0.087348 -0.0949281 -0.0685727 -0.0732831 -0.074471 -0.079728 -0.0732831 -0.0773079 -0.079728 -0.0843165 -0.074471 -0.079728 -0.0808713 -0.0867217 -0.079728 -0.0843165 -0.0867217 -0.0919378 -0.0773079 -0.0805684 -0.0843165 -0.0881581 -0.0805684 -0.0829721 -0.0881581 -0.0911539 -0.0843165 -0.0881581 -0.0919378 -0.096447 -0.0881581 -0.0911539 -0.096447 -0.100149 -0.0808713 -0.0867217 -0.0877258 -0.0941953 -0.0867217 -0.0919378 -0.0941953 -0.100083 -0.0877258 -0.0941953 -0.0949281 -0.102006 -0.0941953 -0.100083 -0.102006 -0.108573 -0.0919378 -0.096447 -0.100083 -0.10533 -0.096447 -0.100149 -0.10533 -0.109843 -0.100083 -0.10533 -0.108573 -0.114592 -0.10533 -0.109843 -0.114592 -0.119988 -9.23805e-05 -9.36484e-05 -0.0120744 -0.0120865 -9.36484e-05 -9.28921e-05 -0.0120865 -0.0119005 -0.0120744 -0.0120865 -0.0219131 -0.0219161 -0.0120865 -0.0119005 -0.0219161 -0.0215687 -9.28921e-05 -8.99373e-05 -0.0119005 -0.0115124 -8.99373e-05 -8.46608e-05 -0.0115124 -0.0109233 -0.0119005 -0.0115124 -0.0215687 -0.0208656 -0.0115124 -0.0109233 -0.0208656 -0.0198106 -0.0219131 -0.0219161 -0.0299579 -0.0299453 -0.0219161 -0.0215687 -0.0299453 -0.0294641 -0.0299579 -0.0299453 -0.0366589 -0.036637 -0.0299453 -0.0294641 -0.036637 -0.0360522 -0.0215687 -0.0208656 -0.0294641 -0.0285087 -0.0208656 -0.0198106 -0.0285087 -0.0270856 -0.0294641 -0.0285087 -0.0360522 -0.0348981 -0.0285087 -0.0270856 -0.0348981 -0.0331825 -8.46608e-05 -7.70155e-05 -0.0109233 -0.0101408 -7.70155e-05 -6.70605e-05 -0.0101408 -0.00918019 -0.0109233 -0.0101408 -0.0198106 -0.0184186 -0.0101408 -0.00918019 -0.0184186 -0.0167182 -6.70605e-05 -5.49881e-05 -0.00918019 -0.00806631 -5.49881e-05 -4.11543e-05 -0.00806631 -0.00683447 -0.00918019 -0.00806631 -0.0167182 -0.0147535 -0.00806631 -0.00683447 -0.0147535 -0.0125862 -0.0198106 -0.0184186 -0.0270856 -0.0252158 -0.0184186 -0.0167182 -0.0252158 -0.0229379 -0.0270856 -0.0252158 -0.0331825 -0.0309305 -0.0252158 -0.0229379 -0.0309305 -0.028188 -0.0167182 -0.0147535 -0.0229379 -0.0203107 -0.0147535 -0.0125862 -0.0203107 -0.0174153 -0.0229379 -0.0203107 -0.028188 -0.0250244 -0.0203107 -0.0174153 -0.0250244 -0.0215351 -0.0366589 -0.036637 -0.0424351 -0.042421 -0.036637 -0.0360522 -0.042421 -0.0417649 -0.0424351 -0.042421 -0.0476609 -0.0476814 -0.042421 -0.0417649 -0.0476814 -0.0469896 -0.0360522 -0.0348981 -0.0417649 -0.0404583 -0.0348981 -0.0331825 -0.0404583 -0.0385082 -0.0417649 -0.0404583 -0.0469896 -0.0455724 -0.0404583 -0.0385082 -0.0455724 -0.0434336 -0.0476609 -0.0476814 -0.052669 -0.0527604 -0.0476814 -0.0469896 -0.0527604 -0.0520731 -0.052669 -0.0527604 -0.0577474 -0.0579567 -0.0527604 -0.0520731 -0.0579567 -0.057322 -0.0469896 -0.0455724 -0.0520731 -0.0505866 -0.0455724 -0.0434336 -0.0505866 -0.048298 -0.0520731 -0.0505866 -0.057322 -0.0558112 -0.0505866 -0.048298 -0.0558112 -0.0534107 -0.0331825 -0.0309305 -0.0385082 -0.0359414 -0.0309305 -0.028188 -0.0359414 -0.0328081 -0.0385082 -0.0359414 -0.0434336 -0.0405987 -0.0359414 -0.0328081 -0.0405987 -0.0371197 -0.028188 -0.0250244 -0.0328081 -0.0291856 -0.0250244 -0.0215351 -0.0291856 -0.0251806 -0.0328081 -0.0291856 -0.0371197 -0.0330794 -0.0291856 -0.0251806 -0.0330794 -0.0285945 -0.0434336 -0.0405987 -0.048298 -0.0452281 -0.0405987 -0.0371197 -0.0452281 -0.0414279 -0.048298 -0.0452281 -0.0534107 -0.0501328 -0.0452281 -0.0414279 -0.0501328 -0.0460235 -0.0371197 -0.0330794 -0.0414279 -0.0369839 -0.0330794 -0.0285945 -0.0369839 -0.032022 -0.0414279 -0.0369839 -0.0460235 -0.0411705 -0.0369839 -0.032022 -0.0411705 -0.0357091 -4.11543e-05 -2.60962e-05 -0.00683447 -0.00553156 -2.60962e-05 -1.06464e-05 -0.00553156 -0.004216 -0.00683447 -0.00553156 -0.0125862 -0.0102971 -0.00553156 -0.004216 -0.0102971 -0.0079846 -1.06464e-05 4.36574e-06 -0.004216 -0.00295934 4.36574e-06 1.6211e-05 -0.00295934 -0.00183218 -0.004216 -0.00295934 -0.0079846 -0.00576574 -0.00295934 -0.00183218 -0.00576574 -0.00375728 -0.0125862 -0.0102971 -0.0174153 -0.014356 -0.0102971 -0.0079846 -0.014356 -0.0112588 -0.0174153 -0.014356 -0.0215351 -0.017842 -0.014356 -0.0112588 -0.017842 -0.0140914 -0.0079846 -0.00576574 -0.0112588 -0.00827012 -0.00576574 -0.00375728 -0.00827012 -0.00553677 -0.0112588 -0.00827012 -0.0140914 -0.010452 -0.00827012 -0.00553677 -0.010452 -0.00709442 1.6211e-05 2.44117e-05 -0.00183218 -0.000961426 2.44117e-05 5.23166e-05 -0.000961426 -0.000158333 -0.00183218 -0.000961426 -0.00375728 -0.00213648 -0.000961426 -0.000158333 -0.00213648 -0.00072254 5.23166e-05 -8.68837e-06 -0.000158333 -0.000817708 -8.68837e-06 0.00681947 -0.000817708 0.00605542 -0.000158333 -0.000817708 -0.00072254 -0.00101517 -0.000817708 0.00605542 -0.00101517 0.00627978 -0.00375728 -0.00213648 -0.00553677 -0.00326426 -0.00213648 -0.00072254 -0.00326426 -0.00130229 -0.00553677 -0.00326426 -0.00709442 -0.00424877 -0.00326426 -0.00130229 -0.00424877 -0.00180319 -0.00072254 -0.00101517 -0.00130229 -0.00119041 -0.00101517 0.00627978 -0.00119041 0.00610159 -0.00130229 -0.00119041 -0.00180319 -0.00131862 -0.00119041 0.00610159 -0.00131862 0.00595303 -0.0215351 -0.017842 -0.0251806 -0.0209297 -0.017842 -0.0140914 -0.0209297 -0.0165975 -0.0251806 -0.0209297 -0.0285945 -0.0238161 -0.0209297 -0.0165975 -0.0238161 -0.018928 -0.0140914 -0.010452 -0.0165975 -0.0123734 -0.010452 -0.00709442 -0.0123734 -0.00845203 -0.0165975 -0.0123734 -0.018928 -0.0141429 -0.0123734 -0.00845203 -0.0141429 -0.00968304 -0.0285945 -0.0238161 -0.032022 -0.0267095 -0.0238161 -0.018928 -0.0267095 -0.0212521 -0.032022 -0.0267095 -0.0357091 -0.0298243 -0.0267095 -0.0212521 -0.0298243 -0.0237492 -0.018928 -0.0141429 -0.0212521 -0.0158914 -0.0141429 -0.00968304 -0.0158914 -0.0108825 -0.0212521 -0.0158914 -0.0237492 -0.0177603 -0.0158914 -0.0108825 -0.0177603 -0.0121539 -0.00709442 -0.00424877 -0.00845203 -0.00509088 -0.00424877 -0.00180319 -0.00509088 -0.00221736 -0.00845203 -0.00509088 -0.00968304 -0.00583757 -0.00509088 -0.00221736 -0.00583757 -0.00257261 -0.00180319 -0.00131862 -0.00221736 -0.00141954 -0.00131862 0.00595303 -0.00141954 0.00585062 -0.00221736 -0.00141954 -0.00257261 -0.00150708 -0.00141954 0.00585062 -0.00150708 0.00579424 -0.00968304 -0.00583757 -0.0108825 -0.00655168 -0.00583757 -0.00257261 -0.00655168 -0.00290296 -0.0108825 -0.00655168 -0.0121539 -0.00730029 -0.00655168 -0.00290296 -0.00730029 -0.00324308 -0.00257261 -0.00150708 -0.00290296 -0.00159201 -0.00150708 0.00579424 -0.00159201 0.00578679 -0.00290296 -0.00159201 -0.00324308 -0.00168463 -0.00159201 0.00578679 -0.00168463 0.00582606 -0.0577474 -0.0579567 -0.06314 -0.0635267 -0.0579567 -0.057322 -0.0635267 -0.0630035 -0.06314 -0.0635267 -0.0690461 -0.0696846 -0.0635267 -0.0630035 -0.0696846 -0.0693481 -0.057322 -0.0558112 -0.0630035 -0.0615229 -0.0558112 -0.0534107 -0.0615229 -0.0590549 -0.0630035 -0.0615229 -0.0693481 -0.0679679 -0.0615229 -0.0590549 -0.0679679 -0.0654914 -0.0690461 -0.0696846 -0.0756207 -0.0766033 -0.0696846 -0.0693481 -0.0766033 -0.0765497 -0.0756207 -0.0766033 -0.0829721 -0.0844107 -0.0766033 -0.0765497 -0.0844107 -0.0847624 -0.0693481 -0.0679679 -0.0765497 -0.0753642 -0.0679679 -0.0654914 -0.0753642 -0.0729631 -0.0765497 -0.0753642 -0.0847624 -0.0838978 -0.0753642 -0.0729631 -0.0838978 -0.0816924 -0.0534107 -0.0501328 -0.0590549 -0.0555975 -0.0501328 -0.0460235 -0.0555975 -0.0511869 -0.0590549 -0.0555975 -0.0654914 -0.0618947 -0.0555975 -0.0511869 -0.0618947 -0.0571968 -0.0460235 -0.0411705 -0.0511869 -0.0459087 -0.0411705 -0.0357091 -0.0459087 -0.0399059 -0.0511869 -0.0459087 -0.0571968 -0.0514749 -0.0459087 -0.0399059 -0.0514749 -0.044877 -0.0654914 -0.0618947 -0.0729631 -0.0692906 -0.0618947 -0.0571968 -0.0692906 -0.0643376 -0.0729631 -0.0692906 -0.0816924 -0.0780452 -0.0692906 -0.0643376 -0.0780452 -0.072904 -0.0571968 -0.0514749 -0.0643376 -0.0581633 -0.0514749 -0.044877 -0.0581633 -0.050914 -0.0643376 -0.0581633 -0.072904 -0.0662941 -0.0581633 -0.050914 -0.0662941 -0.0583478 -0.0829721 -0.0844107 -0.0911539 -0.09318 -0.0844107 -0.0847624 -0.09318 -0.094088 -0.0911539 -0.09318 -0.100149 -0.102908 -0.09318 -0.094088 -0.102908 -0.10455 -0.0847624 -0.0838978 -0.094088 -0.0937092 -0.0838978 -0.0816924 -0.0937092 -0.0918674 -0.094088 -0.0937092 -0.10455 -0.104863 -0.0937092 -0.0918674 -0.104863 -0.103608 -0.100149 -0.102908 -0.109843 -0.113482 -0.102908 -0.10455 -0.113482 -0.116049 -0.109843 -0.113482 -0.119988 -0.124626 -0.113482 -0.116049 -0.124626 -0.128301 -0.10455 -0.104863 -0.116049 -0.117292 -0.104863 -0.103608 -0.117292 -0.116901 -0.116049 -0.117292 -0.128301 -0.13072 -0.117292 -0.116901 -0.13072 -0.131508 -0.0816924 -0.0780452 -0.0918674 -0.0884003 -0.0780452 -0.072904 -0.0884003 -0.0831915 -0.0918674 -0.0884003 -0.103608 -0.100544 -0.0884003 -0.0831915 -0.100544 -0.0954631 -0.072904 -0.0662941 -0.0831915 -0.0762097 -0.0662941 -0.0583478 -0.0762097 -0.0675513 -0.0831915 -0.0762097 -0.0954631 -0.0882459 -0.0762097 -0.0675513 -0.0882459 -0.0789192 -0.103608 -0.100544 -0.116901 -0.114539 -0.100544 -0.0954631 -0.114539 -0.109877 -0.116901 -0.114539 -0.131508 -0.130214 -0.114539 -0.109877 -0.130214 -0.126362 -0.0954631 -0.0882459 -0.109877 -0.102663 -0.0882459 -0.0789192 -0.102663 -0.0928083 -0.109877 -0.10266