# vtk DataFile Version 3.0
#This file was generated by the deal.II library on 2026/1/5 at 14:19:30
ASCII
DATASET UNSTRUCTURED_GRID

POINTS 4096 double
0 0 0
0.03125 0 0
0 0.03125 0
0.03125 0.03125 0
0.03125 0 0
0.0625 0 0
0.03125 0.03125 0
0.0625 0.03125 0
0 0.03125 0
0.03125 0.03125 0
0 0.0625 0
0.03125 0.0625 0
0.03125 0.03125 0
0.0625 0.03125 0
0.03125 0.0625 0
0.0625 0.0625 0
0.0625 0 0
0.09375 0 0
0.0625 0.03125 0
0.09375 0.03125 0
0.09375 0 0
0.125 0 0
0.09375 0.03125 0
0.125 0.03125 0
0.0625 0.03125 0
0.09375 0.03125 0
0.0625 0.0625 0
0.09375 0.0625 0
0.09375 0.03125 0
0.125 0.03125 0
0.09375 0.0625 0
0.125 0.0625 0
0 0.0625 0
0.03125 0.0625 0
0 0.09375 0
0.03125 0.09375 0
0.03125 0.0625 0
0.0625 0.0625 0
0.03125 0.09375 0
0.0625 0.09375 0
0 0.09375 0
0.03125 0.09375 0
0 0.125 0
0.03125 0.125 0
0.03125 0.09375 0
0.0625 0.09375 0
0.03125 0.125 0
0.0625 0.125 0
0.0625 0.0625 0
0.09375 0.0625 0
0.0625 0.09375 0
0.09375 0.09375 0
0.09375 0.0625 0
0.125 0.0625 0
0.09375 0.09375 0
0.125 0.09375 0
0.0625 0.09375 0
0.09375 0.09375 0
0.0625 0.125 0
0.09375 0.125 0
0.09375 0.09375 0
0.125 0.09375 0
0.09375 0.125 0
0.125 0.125 0
0.125 0 0
0.15625 0 0
0.125 0.03125 0
0.15625 0.03125 0
0.15625 0 0
0.1875 0 0
0.15625 0.03125 0
0.1875 0.03125 0
0.125 0.03125 0
0.15625 0.03125 0
0.125 0.0625 0
0.15625 0.0625 0
0.15625 0.03125 0
0.1875 0.03125 0
0.15625 0.0625 0
0.1875 0.0625 0
0.1875 0 0
0.21875 0 0
0.1875 0.03125 0
0.21875 0.03125 0
0.21875 0 0
0.25 0 0
0.21875 0.03125 0
0.25 0.03125 0
0.1875 0.03125 0
0.21875 0.03125 0
0.1875 0.0625 0
0.21875 0.0625 0
0.21875 0.03125 0
0.25 0.03125 0
0.21875 0.0625 0
0.25 0.0625 0
0.125 0.0625 0
0.15625 0.0625 0
0.125 0.09375 0
0.15625 0.09375 0
0.15625 0.0625 0
0.1875 0.0625 0
0.15625 0.09375 0
0.1875 0.09375 0
0.125 0.09375 0
0.15625 0.09375 0
0.125 0.125 0
0.15625 0.125 0
0.15625 0.09375 0
0.1875 0.09375 0
0.15625 0.125 0
0.1875 0.125 0
0.1875 0.0625 0
0.21875 0.0625 0
0.1875 0.09375 0
0.21875 0.09375 0
0.21875 0.0625 0
0.25 0.0625 0
0.21875 0.09375 0
0.25 0.09375 0
0.1875 0.09375 0
0.21875 0.09375 0
0.1875 0.125 0
0.21875 0.125 0
0.21875 0.09375 0
0.25 0.09375 0
0.21875 0.125 0
0.25 0.125 0
0 0.125 0
0.03125 0.125 0
0 0.15625 0
0.03125 0.15625 0
0.03125 0.125 0
0.0625 0.125 0
0.03125 0.15625 0
0.0625 0.15625 0
0 0.15625 0
0.03125 0.15625 0
0 0.1875 0
0.03125 0.1875 0
0.03125 0.15625 0
0.0625 0.15625 0
0.03125 0.1875 0
0.0625 0.1875 0
0.0625 0.125 0
0.09375 0.125 0
0.0625 0.15625 0
0.09375 0.15625 0
0.09375 0.125 0
0.125 0.125 0
0.09375 0.15625 0
0.125 0.15625 0
0.0625 0.15625 0
0.09375 0.15625 0
0.0625 0.1875 0
0.09375 0.1875 0
0.09375 0.15625 0
0.125 0.15625 0
0.09375 0.1875 0
0.125 0.1875 0
0 0.1875 0
0.03125 0.1875 0
0 0.21875 0
0.03125 0.21875 0
0.03125 0.1875 0
0.0625 0.1875 0
0.03125 0.21875 0
0.0625 0.21875 0
0 0.21875 0
0.03125 0.21875 0
0 0.25 0
0.03125 0.25 0
0.03125 0.21875 0
0.0625 0.21875 0
0.03125 0.25 0
0.0625 0.25 0
0.0625 0.1875 0
0.09375 0.1875 0
0.0625 0.21875 0
0.09375 0.21875 0
0.09375 0.1875 0
0.125 0.1875 0
0.09375 0.21875 0
0.125 0.21875 0
0.0625 0.21875 0
0.09375 0.21875 0
0.0625 0.25 0
0.09375 0.25 0
0.09375 0.21875 0
0.125 0.21875 0
0.09375 0.25 0
0.125 0.25 0
0.125 0.125 0
0.15625 0.125 0
0.125 0.15625 0
0.15625 0.15625 0
0.15625 0.125 0
0.1875 0.125 0
0.15625 0.15625 0
0.1875 0.15625 0
0.125 0.15625 0
0.15625 0.15625 0
0.125 0.1875 0
0.15625 0.1875 0
0.15625 0.15625 0
0.1875 0.15625 0
0.15625 0.1875 0
0.1875 0.1875 0
0.1875 0.125 0
0.21875 0.125 0
0.1875 0.15625 0
0.21875 0.15625 0
0.21875 0.125 0
0.25 0.125 0
0.21875 0.15625 0
0.25 0.15625 0
0.1875 0.15625 0
0.21875 0.15625 0
0.1875 0.1875 0
0.21875 0.1875 0
0.21875 0.15625 0
0.25 0.15625 0
0.21875 0.1875 0
0.25 0.1875 0
0.125 0.1875 0
0.15625 0.1875 0
0.125 0.21875 0
0.15625 0.21875 0
0.15625 0.1875 0
0.1875 0.1875 0
0.15625 0.21875 0
0.1875 0.21875 0
0.125 0.21875 0
0.15625 0.21875 0
0.125 0.25 0
0.15625 0.25 0
0.15625 0.21875 0
0.1875 0.21875 0
0.15625 0.25 0
0.1875 0.25 0
0.1875 0.1875 0
0.21875 0.1875 0
0.1875 0.21875 0
0.21875 0.21875 0
0.21875 0.1875 0
0.25 0.1875 0
0.21875 0.21875 0
0.25 0.21875 0
0.1875 0.21875 0
0.21875 0.21875 0
0.1875 0.25 0
0.21875 0.25 0
0.21875 0.21875 0
0.25 0.21875 0
0.21875 0.25 0
0.25 0.25 0
0.25 0 0
0.28125 0 0
0.25 0.03125 0
0.28125 0.03125 0
0.28125 0 0
0.3125 0 0
0.28125 0.03125 0
0.3125 0.03125 0
0.25 0.03125 0
0.28125 0.03125 0
0.25 0.0625 0
0.28125 0.0625 0
0.28125 0.03125 0
0.3125 0.03125 0
0.28125 0.0625 0
0.3125 0.0625 0
0.3125 0 0
0.34375 0 0
0.3125 0.03125 0
0.34375 0.03125 0
0.34375 0 0
0.375 0 0
0.34375 0.03125 0
0.375 0.03125 0
0.3125 0.03125 0
0.34375 0.03125 0
0.3125 0.0625 0
0.34375 0.0625 0
0.34375 0.03125 0
0.375 0.03125 0
0.34375 0.0625 0
0.375 0.0625 0
0.25 0.0625 0
0.28125 0.0625 0
0.25 0.09375 0
0.28125 0.09375 0
0.28125 0.0625 0
0.3125 0.0625 0
0.28125 0.09375 0
0.3125 0.09375 0
0.25 0.09375 0
0.28125 0.09375 0
0.25 0.125 0
0.28125 0.125 0
0.28125 0.09375 0
0.3125 0.09375 0
0.28125 0.125 0
0.3125 0.125 0
0.3125 0.0625 0
0.34375 0.0625 0
0.3125 0.09375 0
0.34375 0.09375 0
0.34375 0.0625 0
0.375 0.0625 0
0.34375 0.09375 0
0.375 0.09375 0
0.3125 0.09375 0
0.34375 0.09375 0
0.3125 0.125 0
0.34375 0.125 0
0.34375 0.09375 0
0.375 0.09375 0
0.34375 0.125 0
0.375 0.125 0
0.375 0 0
0.40625 0 0
0.375 0.03125 0
0.40625 0.03125 0
0.40625 0 0
0.4375 0 0
0.40625 0.03125 0
0.4375 0.03125 0
0.375 0.03125 0
0.40625 0.03125 0
0.375 0.0625 0
0.40625 0.0625 0
0.40625 0.03125 0
0.4375 0.03125 0
0.40625 0.0625 0
0.4375 0.0625 0
0.4375 0 0
0.46875 0 0
0.4375 0.03125 0
0.46875 0.03125 0
0.46875 0 0
0.5 0 0
0.46875 0.03125 0
0.5 0.03125 0
0.4375 0.03125 0
0.46875 0.03125 0
0.4375 0.0625 0
0.46875 0.0625 0
0.46875 0.03125 0
0.5 0.03125 0
0.46875 0.0625 0
0.5 0.0625 0
0.375 0.0625 0
0.40625 0.0625 0
0.375 0.09375 0
0.40625 0.09375 0
0.40625 0.0625 0
0.4375 0.0625 0
0.40625 0.09375 0
0.4375 0.09375 0
0.375 0.09375 0
0.40625 0.09375 0
0.375 0.125 0
0.40625 0.125 0
0.40625 0.09375 0
0.4375 0.09375 0
0.40625 0.125 0
0.4375 0.125 0
0.4375 0.0625 0
0.46875 0.0625 0
0.4375 0.09375 0
0.46875 0.09375 0
0.46875 0.0625 0
0.5 0.0625 0
0.46875 0.09375 0
0.5 0.09375 0
0.4375 0.09375 0
0.46875 0.09375 0
0.4375 0.125 0
0.46875 0.125 0
0.46875 0.09375 0
0.5 0.09375 0
0.46875 0.125 0
0.5 0.125 0
0.25 0.125 0
0.28125 0.125 0
0.25 0.15625 0
0.28125 0.15625 0
0.28125 0.125 0
0.3125 0.125 0
0.28125 0.15625 0
0.3125 0.15625 0
0.25 0.15625 0
0.28125 0.15625 0
0.25 0.1875 0
0.28125 0.1875 0
0.28125 0.15625 0
0.3125 0.15625 0
0.28125 0.1875 0
0.3125 0.1875 0
0.3125 0.125 0
0.34375 0.125 0
0.3125 0.15625 0
0.34375 0.15625 0
0.34375 0.125 0
0.375 0.125 0
0.34375 0.15625 0
0.375 0.15625 0
0.3125 0.15625 0
0.34375 0.15625 0
0.3125 0.1875 0
0.34375 0.1875 0
0.34375 0.15625 0
0.375 0.15625 0
0.34375 0.1875 0
0.375 0.1875 0
0.25 0.1875 0
0.28125 0.1875 0
0.25 0.21875 0
0.28125 0.21875 0
0.28125 0.1875 0
0.3125 0.1875 0
0.28125 0.21875 0
0.3125 0.21875 0
0.25 0.21875 0
0.28125 0.21875 0
0.25 0.25 0
0.28125 0.25 0
0.28125 0.21875 0
0.3125 0.21875 0
0.28125 0.25 0
0.3125 0.25 0
0.3125 0.1875 0
0.34375 0.1875 0
0.3125 0.21875 0
0.34375 0.21875 0
0.34375 0.1875 0
0.375 0.1875 0
0.34375 0.21875 0
0.375 0.21875 0
0.3125 0.21875 0
0.34375 0.21875 0
0.3125 0.25 0
0.34375 0.25 0
0.34375 0.21875 0
0.375 0.21875 0
0.34375 0.25 0
0.375 0.25 0
0.375 0.125 0
0.40625 0.125 0
0.375 0.15625 0
0.40625 0.15625 0
0.40625 0.125 0
0.4375 0.125 0
0.40625 0.15625 0
0.4375 0.15625 0
0.375 0.15625 0
0.40625 0.15625 0
0.375 0.1875 0
0.40625 0.1875 0
0.40625 0.15625 0
0.4375 0.15625 0
0.40625 0.1875 0
0.4375 0.1875 0
0.4375 0.125 0
0.46875 0.125 0
0.4375 0.15625 0
0.46875 0.15625 0
0.46875 0.125 0
0.5 0.125 0
0.46875 0.15625 0
0.5 0.15625 0
0.4375 0.15625 0
0.46875 0.15625 0
0.4375 0.1875 0
0.46875 0.1875 0
0.46875 0.15625 0
0.5 0.15625 0
0.46875 0.1875 0
0.5 0.1875 0
0.375 0.1875 0
0.40625 0.1875 0
0.375 0.21875 0
0.40625 0.21875 0
0.40625 0.1875 0
0.4375 0.1875 0
0.40625 0.21875 0
0.4375 0.21875 0
0.375 0.21875 0
0.40625 0.21875 0
0.375 0.25 0
0.40625 0.25 0
0.40625 0.21875 0
0.4375 0.21875 0
0.40625 0.25 0
0.4375 0.25 0
0.4375 0.1875 0
0.46875 0.1875 0
0.4375 0.21875 0
0.46875 0.21875 0
0.46875 0.1875 0
0.5 0.1875 0
0.46875 0.21875 0
0.5 0.21875 0
0.4375 0.21875 0
0.46875 0.21875 0
0.4375 0.25 0
0.46875 0.25 0
0.46875 0.21875 0
0.5 0.21875 0
0.46875 0.25 0
0.5 0.25 0
0 0.25 0
0.03125 0.25 0
0 0.28125 0
0.03125 0.28125 0
0.03125 0.25 0
0.0625 0.25 0
0.03125 0.28125 0
0.0625 0.28125 0
0 0.28125 0
0.03125 0.28125 0
0 0.3125 0
0.03125 0.3125 0
0.03125 0.28125 0
0.0625 0.28125 0
0.03125 0.3125 0
0.0625 0.3125 0
0.0625 0.25 0
0.09375 0.25 0
0.0625 0.28125 0
0.09375 0.28125 0
0.09375 0.25 0
0.125 0.25 0
0.09375 0.28125 0
0.125 0.28125 0
0.0625 0.28125 0
0.09375 0.28125 0
0.0625 0.3125 0
0.09375 0.3125 0
0.09375 0.28125 0
0.125 0.28125 0
0.09375 0.3125 0
0.125 0.3125 0
0 0.3125 0
0.03125 0.3125 0
0 0.34375 0
0.03125 0.34375 0
0.03125 0.3125 0
0.0625 0.3125 0
0.03125 0.34375 0
0.0625 0.34375 0
0 0.34375 0
0.03125 0.34375 0
0 0.375 0
0.03125 0.375 0
0.03125 0.34375 0
0.0625 0.34375 0
0.03125 0.375 0
0.0625 0.375 0
0.0625 0.3125 0
0.09375 0.3125 0
0.0625 0.34375 0
0.09375 0.34375 0
0.09375 0.3125 0
0.125 0.3125 0
0.09375 0.34375 0
0.125 0.34375 0
0.0625 0.34375 0
0.09375 0.34375 0
0.0625 0.375 0
0.09375 0.375 0
0.09375 0.34375 0
0.125 0.34375 0
0.09375 0.375 0
0.125 0.375 0
0.125 0.25 0
0.15625 0.25 0
0.125 0.28125 0
0.15625 0.28125 0
0.15625 0.25 0
0.1875 0.25 0
0.15625 0.28125 0
0.1875 0.28125 0
0.125 0.28125 0
0.15625 0.28125 0
0.125 0.3125 0
0.15625 0.3125 0
0.15625 0.28125 0
0.1875 0.28125 0
0.15625 0.3125 0
0.1875 0.3125 0
0.1875 0.25 0
0.21875 0.25 0
0.1875 0.28125 0
0.21875 0.28125 0
0.21875 0.25 0
0.25 0.25 0
0.21875 0.28125 0
0.25 0.28125 0
0.1875 0.28125 0
0.21875 0.28125 0
0.1875 0.3125 0
0.21875 0.3125 0
0.21875 0.28125 0
0.25 0.28125 0
0.21875 0.3125 0
0.25 0.3125 0
0.125 0.3125 0
0.15625 0.3125 0
0.125 0.34375 0
0.15625 0.34375 0
0.15625 0.3125 0
0.1875 0.3125 0
0.15625 0.34375 0
0.1875 0.34375 0
0.125 0.34375 0
[...]
POINT_DATA 4096
SCALARS u_x double 1
LOOKUP_TABLE default
1.11726e-05 1.48042e-05 -5.66859e-05 -0.000169586 1.48042e-05 1.21403e-05 -0.000169586 -0.000699252 -5.66859e-05 -0.000169586 -0.000157573 -0.000360884 -0.000169586 -0.000699252 -0.000360884 -0.0013007 1.21403e-05 -2.84164e-06 -0.000699252 -0.00147357 -2.84164e-06 -2.05986e-05 -0.00147357 -0.00237221 -0.000699252 -0.00147357 -0.0013007 -0.00257032 -0.00147357 -0.00237221 -0.00257032 -0.00401455 -0.000157573 -0.000360884 -0.000191482 -0.00048016 -0.000360884 -0.0013007 -0.00048016 -0.00167746 -0.000191482 -0.00048016 -0.000126818 -0.000552965 -0.00048016 -0.00167746 -0.000552965 -0.00188581 -0.0013007 -0.00257032 -0.00167746 -0.0032536 -0.00257032 -0.00401455 -0.0032536 -0.00501793 -0.00167746 -0.0032536 -0.00188581 -0.00364971 -0.0032536 -0.00501793 -0.00364971 -0.0056051 -2.05986e-05 -3.79188e-05 -0.00237221 -0.00330134 -3.79188e-05 -5.40459e-05 -0.00330134 -0.0042108 -0.00237221 -0.00330134 -0.00401455 -0.00550345 -0.00330134 -0.0042108 -0.00550345 -0.00696328 -5.40459e-05 -6.89989e-05 -0.0042108 -0.00507507 -6.89989e-05 -8.28408e-05 -0.00507507 -0.00588011 -0.0042108 -0.00507507 -0.00696328 -0.00835268 -0.00507507 -0.00588011 -0.00835268 -0.00964747 -0.00401455 -0.00550345 -0.00501793 -0.00682631 -0.00550345 -0.00696328 -0.00682631 -0.00859669 -0.00501793 -0.00682631 -0.0056051 -0.00760073 -0.00682631 -0.00859669 -0.00760073 -0.00954991 -0.00696328 -0.00835268 -0.00859669 -0.0102814 -0.00835268 -0.00964747 -0.0102814 -0.0118511 -0.00859669 -0.0102814 -0.00954991 -0.0114029 -0.0102814 -0.0118511 -0.0114029 -0.0131285 -0.000126818 -0.000552965 4.20016e-05 -0.000612795 -0.000552965 -0.00188581 -0.000612795 -0.00201098 4.20016e-05 -0.000612795 0.000314522 -0.000680591 -0.000612795 -0.00201098 -0.000680591 -0.00211294 -0.00188581 -0.00364971 -0.00201098 -0.00390635 -0.00364971 -0.0056051 -0.00390635 -0.00599407 -0.00201098 -0.00390635 -0.00211294 -0.00412725 -0.00390635 -0.00599407 -0.00412725 -0.00633289 0.000314522 -0.000680591 0.000691644 -0.000766317 -0.000680591 -0.00211294 -0.000766317 -0.00222263 0.000691644 -0.000766317 0.00117688 -0.000874282 -0.000766317 -0.00222263 -0.000874282 -0.00235341 -0.00211294 -0.00412725 -0.00222263 -0.00436825 -0.00412725 -0.00633289 -0.00436825 -0.00670169 -0.00222263 -0.00436825 -0.00235341 -0.00465493 -0.00436825 -0.00670169 -0.00465493 -0.00713797 -0.0056051 -0.00760073 -0.00599407 -0.00812069 -0.00760073 -0.00954991 -0.00812069 -0.0101937 -0.00599407 -0.00812069 -0.00633289 -0.008579 -0.00812069 -0.0101937 -0.008579 -0.0107654 -0.00954991 -0.0114029 -0.0101937 -0.0121622 -0.0114029 -0.0131285 -0.0121622 -0.0139941 -0.0101937 -0.0121622 -0.0107654 -0.0128394 -0.0121622 -0.0139941 -0.0128394 -0.0147678 -0.00633289 -0.008579 -0.00670169 -0.00907904 -0.008579 -0.0107654 -0.00907904 -0.0113905 -0.00670169 -0.00907904 -0.00713797 -0.00966928 -0.00907904 -0.0113905 -0.00966928 -0.0121275 -0.0107654 -0.0128394 -0.0113905 -0.013581 -0.0128394 -0.0147678 -0.013581 -0.0156157 -0.0113905 -0.013581 -0.0121275 -0.0144545 -0.013581 -0.0156157 -0.0144545 -0.0166136 -8.28408e-05 -9.5547e-05 -0.00588011 -0.0066162 -9.5547e-05 -0.000107027 -0.0066162 -0.00727522 -0.00588011 -0.0066162 -0.00964747 -0.0108309 -0.0066162 -0.00727522 -0.0108309 -0.0118893 -0.000107027 -0.000117166 -0.00727522 -0.00784997 -0.000117166 -0.000125845 -0.00784997 -0.00833405 -0.00727522 -0.00784997 -0.0118893 -0.012811 -0.00784997 -0.00833405 -0.012811 -0.0135859 -0.00964747 -0.0108309 -0.0118511 -0.0132852 -0.0108309 -0.0118893 -0.0132852 -0.014567 -0.0118511 -0.0132852 -0.0131285 -0.0147043 -0.0132852 -0.014567 -0.0147043 -0.0161119 -0.0118893 -0.012811 -0.014567 -0.0156821 -0.012811 -0.0135859 -0.0156821 -0.0166185 -0.014567 -0.0156821 -0.0161119 -0.017336 -0.0156821 -0.0166185 -0.017336 -0.0183632 -0.000125845 -0.000132948 -0.00833405 -0.00872193 -0.000132948 -0.000138372 -0.00872193 -0.00900901 -0.00833405 -0.00872193 -0.0135859 -0.0142053 -0.00872193 -0.00900901 -0.0142053 -0.014662 -0.000138372 -0.000142029 -0.00900901 -0.00919166 -0.000142029 -0.000143848 -0.00919166 -0.00926725 -0.00900901 -0.00919166 -0.014662 -0.0149504 -0.00919166 -0.00926725 -0.0149504 -0.0150666 -0.0135859 -0.0142053 -0.0166185 -0.0173658 -0.0142053 -0.014662 -0.0173658 -0.0179156 -0.0166185 -0.0173658 -0.0183632 -0.0191826 -0.0173658 -0.0179156 -0.0191826 -0.019785 -0.014662 -0.0149504 -0.0179156 -0.0182614 -0.0149504 -0.0150666 -0.0182614 -0.0183987 -0.0179156 -0.0182614 -0.019785 -0.0201636 -0.0182614 -0.0183987 -0.0201636 -0.0203135 -0.0131285 -0.0147043 -0.0139941 -0.0156659 -0.0147043 -0.0161119 -0.0156659 -0.0171587 -0.0139941 -0.0156659 -0.0147678 -0.0165266 -0.0156659 -0.0171587 -0.0165266 -0.0180964 -0.0161119 -0.017336 -0.0171587 -0.0184565 -0.017336 -0.0183632 -0.0184565 -0.0195455 -0.0171587 -0.0184565 -0.0180964 -0.0194609 -0.0184565 -0.0195455 -0.0194609 -0.020606 -0.0147678 -0.0165266 -0.0156157 -0.0174701 -0.0165266 -0.0180964 -0.0174701 -0.0191244 -0.0156157 -0.0174701 -0.0166136 -0.0185794 -0.0174701 -0.0191244 -0.0185794 -0.0203317 -0.0180964 -0.0194609 -0.0191244 -0.0205618 -0.0194609 -0.020606 -0.0205618 -0.0217685 -0.0191244 -0.0205618 -0.0203317 -0.0218537 -0.0205618 -0.0217685 -0.0218537 -0.0231316 -0.0183632 -0.0191826 -0.0195455 -0.0204143 -0.0191826 -0.019785 -0.0204143 -0.0210536 -0.0195455 -0.0204143 -0.020606 -0.0215203 -0.0204143 -0.0210536 -0.0215203 -0.0221941 -0.019785 -0.0201636 -0.0210536 -0.0214562 -0.0201636 -0.0203135 -0.0214562 -0.0216171 -0.0210536 -0.0214562 -0.0221941 -0.0226204 -0.0214562 -0.0216171 -0.0226204 -0.0227938 -0.020606 -0.0215203 -0.0217685 -0.0227328 -0.0215203 -0.0221941 -0.0227328 -0.0234453 -0.0217685 -0.0227328 -0.0231316 -0.0241538 -0.0227328 -0.0234453 -0.0241538 -0.0249113 -0.0221941 -0.0226204 -0.0234453 -0.0238986 -0.0226204 -0.0227938 -0.0238986 -0.0240874 -0.0234453 -0.0238986 -0.0249113 -0.0253966 -0.0238986 -0.0240874 -0.0253966 -0.0256041 0.00117688 -0.000874282 0.00177615 -0.00100681 -0.000874282 -0.00235341 -0.00100681 -0.00251105 0.00177615 -0.00100681 0.00249742 -0.00116601 -0.00100681 -0.00251105 -0.00116601 -0.00269925 -0.00235341 -0.00465493 -0.00251105 -0.00499929 -0.00465493 -0.00713797 -0.00499929 -0.00765981 -0.00251105 -0.00499929 -0.00269925 -0.00540933 -0.00499929 -0.00765981 -0.00540933 -0.00827931 0.00249742 -0.00116601 0.00335066 -0.00135441 -0.00116601 -0.00269925 -0.00135441 -0.00292194 0.00335066 -0.00135441 0.00434786 -0.00157524 -0.00135441 -0.00292194 -0.00157524 -0.00318414 -0.00269925 -0.00540933 -0.00292194 -0.00589331 -0.00540933 -0.00827931 -0.00589331 -0.0090087 -0.00292194 -0.00589331 -0.00318414 -0.00646144 -0.00589331 -0.0090087 -0.00646144 -0.00986281 -0.00713797 -0.00966928 -0.00765981 -0.0103733 -0.00966928 -0.0121275 -0.0103733 -0.0130046 -0.00765981 -0.0103733 -0.00827931 -0.0112069 -0.0103733 -0.0130046 -0.0112069 -0.0140406 -0.0121275 -0.0144545 -0.0130046 -0.0154921 -0.0144545 -0.0166136 -0.0154921 -0.0177969 -0.0130046 -0.0154921 -0.0140406 -0.0167148 -0.0154921 -0.0177969 -0.0167148 -0.019188 -0.00827931 -0.0112069 -0.0090087 -0.0121858 -0.0112069 -0.0140406 -0.0121858 -0.0152538 -0.0090087 -0.0121858 -0.00986281 -0.0133288 -0.0121858 -0.0152538 -0.0133288 -0.0166659 -0.0140406 -0.0167148 -0.0152538 -0.0181427 -0.0167148 -0.019188 -0.0181427 -0.0208079 -0.0152538 -0.0181427 -0.0166659 -0.0197989 -0.0181427 -0.0208079 -0.0197989 -0.0226803 0.00434786 -0.00157524 0.00550331 -0.00183256 -0.00157524 -0.00318414 -0.00183256 -0.00349252 0.00550331 -0.00183256 0.00683391 -0.00213152 -0.00183256 -0.00349252 -0.00213152 -0.00385597 -0.00318414 -0.00646144 -0.00349252 -0.00712699 -0.00646144 -0.00986281 -0.00712699 -0.0108607 -0.00349252 -0.00712699 -0.00385597 -0.00790738 -0.00712699 -0.0108607 -0.00790738 -0.012027 0.00683391 -0.00213152 0.00835967 -0.00247866 -0.00213152 -0.00385597 -0.00247866 -0.00428648 0.00835967 -0.00247866 0.0101044 -0.00288248 -0.00247866 -0.00428648 -0.00288248 -0.00480049 -0.00385597 -0.00790738 -0.00428648 -0.00882576 -0.00790738 -0.012027 -0.00882576 -0.0133942 -0.00428648 -0.00882576 -0.00480049 -0.00991331 -0.00882576 -0.0133942 -0.00991331 -0.0150057 -0.00986281 -0.0133288 -0.0108607 -0.0146596 -0.0133288 -0.0166659 -0.0146596 -0.0183037 -0.0108607 -0.0146596 -0.012027 -0.0162086 -0.0146596 -0.0183037 -0.0162086 -0.0202014 -0.0166659 -0.0197989 -0.0183037 -0.021712 -0.0197989 -0.0226803 -0.021712 -0.0248339 -0.0183037 -0.021712 -0.0202014 -0.0239174 -0.021712 -0.0248339 -0.0239174 -0.0273035 -0.012027 -0.0162086 -0.0133942 -0.0180155 -0.0162086 -0.0202014 -0.0180155 -0.0224022 -0.0133942 -0.0180155 -0.0150057 -0.0201319 -0.0180155 -0.0224022 -0.0201319 -0.0249622 -0.0202014 -0.0239174 -0.0224022 -0.0264594 -0.0239174 -0.0273035 -0.0264594 -0.0301316 -0.0224022 -0.0264594 -0.0249622 -0.0293938 -0.0264594 -0.0301316 -0.0293938 -0.0333706 -0.0166136 -0.0185794 -0.0177969 -0.0198926 -0.0185794 -0.0203317 -0.0198926 -0.0217586 -0.0177969 -0.0198926 -0.019188 -0.0214329 -0.0198926 -0.0217586 -0.0214329 -0.0234287 -0.0203317 -0.0218537 -0.0217586 -0.0233783 -0.0218537 -0.0231316 -0.0233783 -0.0247382 -0.0217586 -0.0233783 -0.0234287 -0.0251593 -0.0233783 -0.0247382 -0.0251593 -0.026612 -0.019188 -0.0214329 -0.0208079 -0.0232214 -0.0214329 -0.0234287 -0.0232214 -0.0253627 -0.0208079 -0.0232214 -0.0226803 -0.0252816 -0.0232214 -0.0253627 -0.0252816 -0.0275832 -0.0234287 -0.0251593 -0.0253627 -0.0272169 -0.0251593 -0.026612 -0.0272169 -0.0287723 -0.0253627 -0.0272169 -0.0275832 -0.029572 -0.0272169 -0.0287723 -0.029572 -0.0312387 -0.0231316 -0.0241538 -0.0247382 -0.0258272 -0.0241538 -0.0249113 -0.0258272 -0.0266367 -0.0247382 -0.0258272 -0.026612 -0.0277766 -0.0258272 -0.0266367 -0.0277766 -0.0286449 -0.0249113 -0.0253966 -0.0266367 -0.0271593 -0.0253966 -0.0256041 -0.0271593 -0.0273896 -0.0266367 -0.0271593 -0.0286449 -0.0292105 -0.0271593 -0.0273896 -0.0292105 -0.0294677 -0.026612 -0.0277766 -0.0287723 -0.0300203 -0.0277766 -0.0286449 -0.0300203 -0.0309542 -0.0287723 -0.0300203 -0.0312387 -0.0325769 -0.0300203 -0.0309542 -0.0325769 -0.0335818 -0.0286449 -0.0292105 -0.0309542 -0.0315681 -0.0292105 -0.0294677 -0.0315681 -0.0318569 -0.0309542 -0.0315681 -0.0335818 -0.0342492 -0.0315681 -0.0318569 -0.0342492 -0.0345746 -0.0226803 -0.0252816 -0.0248339 -0.027641 -0.0252816 -0.0275832 -0.027641 -0.0301158 -0.0248339 -0.027641 -0.0273035 -0.0303324 -0.027641 -0.0301158 -0.0303324 -0.0329902 -0.0275832 -0.029572 -0.0301158 -0.0322481 -0.029572 -0.0312387 -0.0322481 -0.0340321 -0.0301158 -0.0322481 -0.0329902 -0.0352712 -0.0322481 -0.0340321 -0.0352712 -0.0371752 -0.0273035 -0.0303324 -0.0301316 -0.0333947 -0.0303324 -0.0329902 -0.0333947 -0.0362403 -0.0301316 -0.0333947 -0.0333706 -0.0368742 -0.0333947 -0.0362403 -0.0368742 -0.0399052 -0.0329902 -0.0352712 -0.0362403 -0.03867 -0.0352712 -0.0371752 -0.03867 -0.0406912 -0.0362403 -0.03867 -0.0399052 -0.0424758 -0.03867 -0.0406912 -0.0424758 -0.0446042 -0.0312387 -0.0325769 -0.0340321 -0.0354651 -0.0325769 -0.0335818 -0.0354651 -0.0365452 -0.0340321 -0.0354651 -0.0371752 -0.0387043 -0.0354651 -0.0365452 -0.0387043 -0.0398614 -0.0335818 -0.0342492 -0.0365452 -0.0372705 -0.0342492 -0.0345746 -0.0372705 -0.0376378 -0.0365452 -0.0372705 -0.0398614 -0.0406479 -0.0372705 -0.0376378 -0.0406479 -0.0410623 -0.0371752 -0.0387043 -0.0406912 -0.0423135 -0.0387043 -0.0398614 -0.0423135 -0.0435459 -0.0406912 -0.0423135 -0.0446042 -0.0463102 -0.0423135 -0.0435459 -0.0463102 -0.0476114 -0.0398614 -0.0406479 -0.0435459 -0.0443948 -0.0406479 -0.0410623 -0.0443948 -0.0448616 -0.0435459 -0.0443948 -0.0476114 -0.0485208 -0.0443948 -0.0448616 -0.0485208 -0.0490443 -0.000143848 -0.000143776 -0.00926725 -0.00923421 -0.000143776 -0.000141777 -0.00923421 -0.00909208 -0.00926725 -0.00923421 -0.0150666 -0.0150085 -0.00923421 -0.00909208 -0.0150085 -0.0147753 -0.000141777 -0.000137839 -0.00909208 -0.00884153 -0.000137839 -0.000131977 -0.00884153 -0.00848442 -0.00909208 -0.00884153 -0.0147753 -0.0143686 -0.00884153 -0.00848442 -0.0143686 -0.0137913 -0.0150666 -0.0150085 -0.0183987 -0.0183248 -0.0150085 -0.0147753 -0.0183248 -0.0180394 -0.0183987 -0.0183248 -0.0203135 -0.020232 -0.0183248 -0.0180394 -0.020232 -0.0199186 -0.0147753 -0.0143686 -0.0180394 -0.0175441 -0.0143686 -0.0137913 -0.0175441 -0.0168428 -0.0180394 -0.0175441 -0.0199186 -0.019375 -0.0175441 -0.0168428 -0.019375 -0.0186053 -0.000131977 -0.00012423 -0.00848442 -0.00802387 -0.00012423 -0.000114662 -0.00802387 -0.00746423 -0.00848442 -0.00802387 -0.0137913 -0.0130486 -0.00802387 -0.00746423 -0.0130486 -0.0121476 -0.000114662 -0.000103361 -0.00746423 -0.00681112 -0.000103361 -9.04373e-05 -0.00681112 -0.00607145 -0.00746423 -0.00681112 -0.0121476 -0.0110975 -0.00681112 -0.00607145 -0.0110975 -0.0099094 -0.0137913 -0.0130486 -0.0168428 -0.0159416 -0.0130486 -0.0121476 -0.0159416 -0.0148491 -0.0168428 -0.0159416 -0.0186053 -0.0176161 -0.0159416 -0.0148491 -0.0176161 -0.0164165 -0.0121476 -0.0110975 -0.0148491 -0.0135764 -0.0110975 -0.0099094 -0.0135764 -0.0121371 -0.0148491 -0.0135764 -0.0164165 -0.0150185 -0.0135764 -0.0121371 -0.0150185 -0.013437 -0.0203135 -0.020232 -0.0216171 -0.0215334 -0.020232 -0.0199186 -0.0215334 -0.0212043 -0.0216171 -0.0215334 -0.0227938 -0.0227112 -0.0215334 -0.0212043 -0.0227112 -0.0223715 -0.0199186 -0.019375 -0.0212043 -0.0206315 -0.019375 -0.0186053 -0.0206315 -0.0198188 -0.0212043 -0.0206315 -0.0223715 -0.0217758 -0.0206315 -0.0198188 -0.0217758 -0.0209278 -0.0227938 -0.0227112 -0.0240874 -0.024008 -0.0227112 -0.0223715 -0.024008 -0.0236592 -0.0240874 -0.024008 -0.0256041 -0.0255301 -0.024008 -0.0236592 -0.0255301 -0.0251724 -0.0223715 -0.0217758 -0.0236592 -0.0230413 -0.0217758 -0.0209278 -0.0230413 -0.0221573 -0.0236592 -0.0230413 -0.0251724 -0.0245308 -0.0230413 -0.0221573 -0.0245308 -0.0236071 -0.0186053 -0.0176161 -0.0198188 -0.0187728 -0.0176161 -0.0164165 -0.0187728 -0.0175028 -0.0198188 -0.0187728 -0.0209278 -0.0198336 -0.0187728 -0.0175028 -0.0198336 -0.0185022 -0.0164165 -0.0150185 -0.0175028 -0.0160209 -0.0150185 -0.013437 -0.0160209 -0.0143427 -0.0175028 -0.0160209 -0.0185022 -0.0169458 -0.0160209 -0.0143427 -0.0169458 -0.0151797 -0.0209278 -0.0198336 -0.0221573 -0.0210126 -0.0198336 -0.0185022 -0.0210126 -0.0196157 -0.0221573 -0.0210126 -0.0236071 -0.0224058 -0.0210126 -0.0196157 -0.0224058 -0.0209343 -0.0185022 -0.0169458 -0.0196157 -0.0179783 -0.0169458 -0.0151797 -0.0179783 -0.0161158 -0.0196157 -0.0179783 -0.0209343 -0.0192037 -0.0179783 -0.0161158 -0.0192037 -0.0172289 -9.04373e-05 -7.59672e-05 -0.00607145 -0.00525367 -7.59672e-05 -6.0127e-05 -0.00525367 -0.00436767 -0.00607145 -0.00525367 -0.0099094 -0.00859739 -0.00525367 -0.00436767 -0.00859739 -0.00717857 -6.0127e-05 -4.23672e-05 -0.00436767 -0.00343288 -4.23672e-05 -2.55571e-05 -0.00343288 -0.00245766 -0.00436767 -0.00343288 -0.00717857 -0.00568307 -0.00343288 -0.00245766 -0.00568307 -0.00413287 -0.0099094 -0.00859739 -0.0121371 -0.0105483 -0.00859739 -0.00717857 -0.0105483 -0.00883125 -0.0121371 -0.0105483 -0.013437 -0.0116907 -0.0105483 -0.00883125 -0.0116907 -0.00980241 -0.00717857 -0.00568307 -0.00883125 -0.0070212 -0.00568307 -0.00413287 -0.0070212 -0.00514723 -0.00883125 -0.0070212 -0.00980241 -0.00780997 -0.0070212 -0.00514723 -0.00780997 -0.00574515 -2.55571e-05 -6.92074e-06 -0.00245766 -0.00159818 -6.92074e-06 6.97845e-05 -0.00159818 -0.000357059 -0.00245766 -0.00159818 -0.00413287 -0.00272615 -0.00159818 -0.000357059 -0.00272615 -0.00093229 6.97845e-05 -3.77433e-05 -0.000357059 -0.00192077 -3.77433e-05 0.0147978 -0.00192077 0.0131608 -0.000357059 -0.00192077 -0.00093229 -0.00219991 -0.00192077 0.0131608 -0.00219991 0.0138424 -0.00413287 -0.00272615 -0.00514723 -0.00341881 -0.00272615 -0.00093229 -0.00341881 -0.00130863 -0.00514723 -0.00341881 -0.00574515 -0.0038225 -0.00341881 -0.00130863 -0.0038225 -0.00152215 -0.00093229 -0.00219991 -0.00130863 -0.00236104 -0.00219991 0.0138424 -0.00236104 0.0137693 -0.00130863 -0.00236104 -0.00152215 -0.00243673 -0.00236104 0.0137693 -0.00243673 0.0138274 -0.013437 -0.0116907 -0.0143427 -0.0124874 -0.0116907 -0.00980241 -0.0124874 -0.0104791 -0.0143427 -0.0124874 -0.0151797 -0.0132239 -0.0124874 -0.0104791 -0.0132239 -0.0111032 -0.00980241 -0.00780997 -0.0104791 -0.00835669 -0.00780997 -0.00574515 -0.00835669 -0.00615392 -0.0104791 -0.00835669 -0.0111032 -0.00885808 -0.00835669 -0.00615392 -0.00885808 -0.00652472 -0.0151797 -0.0132239 -0.0161158 -0.0140484 -0.0132239 -0.0111032 -0.0140484 -0.0118017 -0.0161158 -0.0140484 -0.0172289 -0.0150305 -0.0140484 -0.0118017 -0.0150305 -0.0126352 -0.0111032 -0.00885808 -0.0118017 -0.00941867 -0.00885808 -0.00652472 -0.00941867 -0.00693871 -0.0118017 -0.00941867 -0.0126352 -0.0100887 -0.00941867 -0.00693871 -0.0100887 -0.00743471 -0.00574515 -0.0038225 -0.00615392 -0.00409162 -0.0038225 -0.00152215 -0.00409162 -0.00165214 -0.00615392 -0.00409162 -0.00652472 -0.00433288 -0.00409162 -0.00165214 -0.00433288 -0.00176351 -0.00152215 -0.00243673 -0.00165214 -0.00249697 -0.00243673 0.0138274 -0.00249697 0.014006 -0.00165214 -0.00249697 -0.00176351 -0.00256861 -0.00249697 0.014006 -0.00256861 0.0142865 -0.00652472 -0.00433288 -0.00693871 -0.00460311 -0.00433288 -0.00176351 -0.00460311 -0.00188749 -0.00693871 -0.00460311 -0.00743471 -0.00492868 -0.00460311 -0.00188749 -0.00492868 -0.00203757 -0.00176351 -0.00256861 -0.00188749 -0.00265995 -0.00256861 0.0142865 -0.00265995 0.0146737 -0.00188749 -0.00265995 -0.00203757 -0.00277544 -0.00265995 0.0146737 -0.00277544 0.0151708 -0.0256041 -0.0255301 -0.0273896 -0.0273231 -0.0255301 -0.0251724 -0.0273231 -0.0269572 -0.0273896 -0.0273231 -0.0294677 -0.0294118 -0.0273231 -0.0269572 -0.0294118 -0.029039 -0.0251724 -0.0245308 -0.0269572 -0.0262903 -0.0245308 -0.0236071 -0.0262903 -0.0253231 -0.0269572 -0.0262903 -0.029039 -0.0283466 -0.0262903 -0.0253231 -0.0283466 -0.0273331 -0.0294677 -0.0294118 -0.0318569 -0.0318154 -0.0294118 -0.029039 -0.0318154 -0.0314387 -0.0318569 -0.0318154 -0.0345746 -0.0345525 -0.0318154 -0.0314387 -0.0345525 -0.0341766 -0.029039 -0.0283466 -0.0314387 -0.0307221 -0.0283466 -0.0273331 -0.0307221 -0.0296618 -0.0314387 -0.0307221 -0.0341766 -0.03344 -0.0307221 -0.0296618 -0.03344 -0.0323352 -0.0236071 -0.0224058 -0.0253231 -0.0240584 -0.0224058 -0.0209343 -0.0240584 -0.0225022 -0.0253231 -0.0240584 -0.0273331 -0.0259993 -0.0240584 -0.0225022 -0.0259993 -0.0243491 -0.0209343 -0.0192037 -0.0225022 -0.0206643 -0.0192037 -0.0172289 -0.0206643 -0.0185591 -0.0225022 -0.0206643 -0.0243491 -0.0223903 -0.0206643 -0.0185591 -0.0223903 -0.0201357 -0.0273331 -0.0259993 -0.0296618 -0.0282554 -0.0259993 -0.0243491 -0.0282554 -0.0265037 -0.0296618 -0.0282554 -0.0323352 -0.0308559 -0.0282554 -0.0265037 -0.0308559 -0.0289981 -0.0243491 -0.0223903 -0.0265037 -0.0244113 -0.0223903 -0.0201357 -0.0244113 -0.021989 -0.0265037 -0.0244113 -0.0289981 -0.0267621 -0.0244113 -0.021989 -0.0267621 -0.0241549 -0.0345746 -0.0345525 -0.0376378 -0.0376414 -0.0345525 -0.0341766 -0.0376414 -0.0372736 -0.0376378 -0.0376414 -0.0410623 -0.0410995 -0.0376414 -0.0372736 -0.0410995 -0.0407499 -0.0341766 -0.03344 -0.0372736 -0.0365242 -0.03344 -0.0323352 -0.0365242 -0.0353815 -0.0372736 -0.0365242 -0.0407499 -0.0399997 -0.0365242 -0.0353815 -0.0399997 -0.0388314 -0.0410623 -0.0410995 -0.0448616 -0.0449418 -0.0410995 -0.0407499 -0.0449418 -0.0446243 -0.0448616 -0.0449418 -0.0490443 -0.0491787 -0.0449418 -0.0446243 -0.0491787 -0.0489115 -0.0407499 -0.0399997 -0.0446243 -0.0438908 -0.0399997 -0.0388314 -0.0438908 -0.0427167 -0.0446243 -0.0438908 -0.0489115 -0.0482193 -0.0438908 -0.0427167 -0.0482193 -0.0470691 -0.0323352 -0.0308559 -0.0353815 -0.0338336 -0.0308559 -0.0289981 -0.0338336 -0.0318699 -0.0353815 -0.0338336 -0.0388314 -0.0372256 -0.0338336 -0.0318699 -0.0372256 -0.0351629 -0.0289981 -0.0267621 -0.0318699 -0.0294842 -0.0267621 -0.0241549 -0.0294842 -0.0266775 -0.0318699 -0.0294842 -0.0351629 -0.0326275 -0.0294842 -0.0266775 -0.0326275 -0.0296111 -0.0388314 -0.0372256 -0.0