# vtk DataFile Version 3.0
#This file was generated by the deal.II library on 2026/1/5 at 14:19:36
ASCII
DATASET UNSTRUCTURED_GRID

POINTS 4096 double
0 0 0
0.03125 0 0
0 0.03125 0
0.03125 0.03125 0
0.03125 0 0
0.0625 0 0
0.03125 0.03125 0
0.0625 0.03125 0
0 0.03125 0
0.03125 0.03125 0
0 0.0625 0
0.03125 0.0625 0
0.03125 0.03125 0
0.0625 0.03125 0
0.03125 0.0625 0
0.0625 0.0625 0
0.0625 0 0
0.09375 0 0
0.0625 0.03125 0
0.09375 0.03125 0
0.09375 0 0
0.125 0 0
0.09375 0.03125 0
0.125 0.03125 0
0.0625 0.03125 0
0.09375 0.03125 0
0.0625 0.0625 0
0.09375 0.0625 0
0.09375 0.03125 0
0.125 0.03125 0
0.09375 0.0625 0
0.125 0.0625 0
0 0.0625 0
0.03125 0.0625 0
0 0.09375 0
0.03125 0.09375 0
0.03125 0.0625 0
0.0625 0.0625 0
0.03125 0.09375 0
0.0625 0.09375 0
0 0.09375 0
0.03125 0.09375 0
0 0.125 0
0.03125 0.125 0
0.03125 0.09375 0
0.0625 0.09375 0
0.03125 0.125 0
0.0625 0.125 0
0.0625 0.0625 0
0.09375 0.0625 0
0.0625 0.09375 0
0.09375 0.09375 0
0.09375 0.0625 0
0.125 0.0625 0
0.09375 0.09375 0
0.125 0.09375 0
0.0625 0.09375 0
0.09375 0.09375 0
0.0625 0.125 0
0.09375 0.125 0
0.09375 0.09375 0
0.125 0.09375 0
0.09375 0.125 0
0.125 0.125 0
0.125 0 0
0.15625 0 0
0.125 0.03125 0
0.15625 0.03125 0
0.15625 0 0
0.1875 0 0
0.15625 0.03125 0
0.1875 0.03125 0
0.125 0.03125 0
0.15625 0.03125 0
0.125 0.0625 0
0.15625 0.0625 0
0.15625 0.03125 0
0.1875 0.03125 0
0.15625 0.0625 0
0.1875 0.0625 0
0.1875 0 0
0.21875 0 0
0.1875 0.03125 0
0.21875 0.03125 0
0.21875 0 0
0.25 0 0
0.21875 0.03125 0
0.25 0.03125 0
0.1875 0.03125 0
0.21875 0.03125 0
0.1875 0.0625 0
0.21875 0.0625 0
0.21875 0.03125 0
0.25 0.03125 0
0.21875 0.0625 0
0.25 0.0625 0
0.125 0.0625 0
0.15625 0.0625 0
0.125 0.09375 0
0.15625 0.09375 0
0.15625 0.0625 0
0.1875 0.0625 0
0.15625 0.09375 0
0.1875 0.09375 0
0.125 0.09375 0
0.15625 0.09375 0
0.125 0.125 0
0.15625 0.125 0
0.15625 0.09375 0
0.1875 0.09375 0
0.15625 0.125 0
0.1875 0.125 0
0.1875 0.0625 0
0.21875 0.0625 0
0.1875 0.09375 0
0.21875 0.09375 0
0.21875 0.0625 0
0.25 0.0625 0
0.21875 0.09375 0
0.25 0.09375 0
0.1875 0.09375 0
0.21875 0.09375 0
0.1875 0.125 0
0.21875 0.125 0
0.21875 0.09375 0
0.25 0.09375 0
0.21875 0.125 0
0.25 0.125 0
0 0.125 0
0.03125 0.125 0
0 0.15625 0
0.03125 0.15625 0
0.03125 0.125 0
0.0625 0.125 0
0.03125 0.15625 0
0.0625 0.15625 0
0 0.15625 0
0.03125 0.15625 0
0 0.1875 0
0.03125 0.1875 0
0.03125 0.15625 0
0.0625 0.15625 0
0.03125 0.1875 0
0.0625 0.1875 0
0.0625 0.125 0
0.09375 0.125 0
0.0625 0.15625 0
0.09375 0.15625 0
0.09375 0.125 0
0.125 0.125 0
0.09375 0.15625 0
0.125 0.15625 0
0.0625 0.15625 0
0.09375 0.15625 0
0.0625 0.1875 0
0.09375 0.1875 0
0.09375 0.15625 0
0.125 0.15625 0
0.09375 0.1875 0
0.125 0.1875 0
0 0.1875 0
0.03125 0.1875 0
0 0.21875 0
0.03125 0.21875 0
0.03125 0.1875 0
0.0625 0.1875 0
0.03125 0.21875 0
0.0625 0.21875 0
0 0.21875 0
0.03125 0.21875 0
0 0.25 0
0.03125 0.25 0
0.03125 0.21875 0
0.0625 0.21875 0
0.03125 0.25 0
0.0625 0.25 0
0.0625 0.1875 0
0.09375 0.1875 0
0.0625 0.21875 0
0.09375 0.21875 0
0.09375 0.1875 0
0.125 0.1875 0
0.09375 0.21875 0
0.125 0.21875 0
0.0625 0.21875 0
0.09375 0.21875 0
0.0625 0.25 0
0.09375 0.25 0
0.09375 0.21875 0
0.125 0.21875 0
0.09375 0.25 0
0.125 0.25 0
0.125 0.125 0
0.15625 0.125 0
0.125 0.15625 0
0.15625 0.15625 0
0.15625 0.125 0
0.1875 0.125 0
0.15625 0.15625 0
0.1875 0.15625 0
0.125 0.15625 0
0.15625 0.15625 0
0.125 0.1875 0
0.15625 0.1875 0
0.15625 0.15625 0
0.1875 0.15625 0
0.15625 0.1875 0
0.1875 0.1875 0
0.1875 0.125 0
0.21875 0.125 0
0.1875 0.15625 0
0.21875 0.15625 0
0.21875 0.125 0
0.25 0.125 0
0.21875 0.15625 0
0.25 0.15625 0
0.1875 0.15625 0
0.21875 0.15625 0
0.1875 0.1875 0
0.21875 0.1875 0
0.21875 0.15625 0
0.25 0.15625 0
0.21875 0.1875 0
0.25 0.1875 0
0.125 0.1875 0
0.15625 0.1875 0
0.125 0.21875 0
0.15625 0.21875 0
0.15625 0.1875 0
0.1875 0.1875 0
0.15625 0.21875 0
0.1875 0.21875 0
0.125 0.21875 0
0.15625 0.21875 0
0.125 0.25 0
0.15625 0.25 0
0.15625 0.21875 0
0.1875 0.21875 0
0.15625 0.25 0
0.1875 0.25 0
0.1875 0.1875 0
0.21875 0.1875 0
0.1875 0.21875 0
0.21875 0.21875 0
0.21875 0.1875 0
0.25 0.1875 0
0.21875 0.21875 0
0.25 0.21875 0
0.1875 0.21875 0
0.21875 0.21875 0
0.1875 0.25 0
0.21875 0.25 0
0.21875 0.21875 0
0.25 0.21875 0
0.21875 0.25 0
0.25 0.25 0
0.25 0 0
0.28125 0 0
0.25 0.03125 0
0.28125 0.03125 0
0.28125 0 0
0.3125 0 0
0.28125 0.03125 0
0.3125 0.03125 0
0.25 0.03125 0
0.28125 0.03125 0
0.25 0.0625 0
0.28125 0.0625 0
0.28125 0.03125 0
0.3125 0.03125 0
0.28125 0.0625 0
0.3125 0.0625 0
0.3125 0 0
0.34375 0 0
0.3125 0.03125 0
0.34375 0.03125 0
0.34375 0 0
0.375 0 0
0.34375 0.03125 0
0.375 0.03125 0
0.3125 0.03125 0
0.34375 0.03125 0
0.3125 0.0625 0
0.34375 0.0625 0
0.34375 0.03125 0
0.375 0.03125 0
0.34375 0.0625 0
0.375 0.0625 0
0.25 0.0625 0
0.28125 0.0625 0
0.25 0.09375 0
0.28125 0.09375 0
0.28125 0.0625 0
0.3125 0.0625 0
0.28125 0.09375 0
0.3125 0.09375 0
0.25 0.09375 0
0.28125 0.09375 0
0.25 0.125 0
0.28125 0.125 0
0.28125 0.09375 0
0.3125 0.09375 0
0.28125 0.125 0
0.3125 0.125 0
0.3125 0.0625 0
0.34375 0.0625 0
0.3125 0.09375 0
0.34375 0.09375 0
0.34375 0.0625 0
0.375 0.0625 0
0.34375 0.09375 0
0.375 0.09375 0
0.3125 0.09375 0
0.34375 0.09375 0
0.3125 0.125 0
0.34375 0.125 0
0.34375 0.09375 0
0.375 0.09375 0
0.34375 0.125 0
0.375 0.125 0
0.375 0 0
0.40625 0 0
0.375 0.03125 0
0.40625 0.03125 0
0.40625 0 0
0.4375 0 0
0.40625 0.03125 0
0.4375 0.03125 0
0.375 0.03125 0
0.40625 0.03125 0
0.375 0.0625 0
0.40625 0.0625 0
0.40625 0.03125 0
0.4375 0.03125 0
0.40625 0.0625 0
0.4375 0.0625 0
0.4375 0 0
0.46875 0 0
0.4375 0.03125 0
0.46875 0.03125 0
0.46875 0 0
0.5 0 0
0.46875 0.03125 0
0.5 0.03125 0
0.4375 0.03125 0
0.46875 0.03125 0
0.4375 0.0625 0
0.46875 0.0625 0
0.46875 0.03125 0
0.5 0.03125 0
0.46875 0.0625 0
0.5 0.0625 0
0.375 0.0625 0
0.40625 0.0625 0
0.375 0.09375 0
0.40625 0.09375 0
0.40625 0.0625 0
0.4375 0.0625 0
0.40625 0.09375 0
0.4375 0.09375 0
0.375 0.09375 0
0.40625 0.09375 0
0.375 0.125 0
0.40625 0.125 0
0.40625 0.09375 0
0.4375 0.09375 0
0.40625 0.125 0
0.4375 0.125 0
0.4375 0.0625 0
0.46875 0.0625 0
0.4375 0.09375 0
0.46875 0.09375 0
0.46875 0.0625 0
0.5 0.0625 0
0.46875 0.09375 0
0.5 0.09375 0
0.4375 0.09375 0
0.46875 0.09375 0
0.4375 0.125 0
0.46875 0.125 0
0.46875 0.09375 0
0.5 0.09375 0
0.46875 0.125 0
0.5 0.125 0
0.25 0.125 0
0.28125 0.125 0
0.25 0.15625 0
0.28125 0.15625 0
0.28125 0.125 0
0.3125 0.125 0
0.28125 0.15625 0
0.3125 0.15625 0
0.25 0.15625 0
0.28125 0.15625 0
0.25 0.1875 0
0.28125 0.1875 0
0.28125 0.15625 0
0.3125 0.15625 0
0.28125 0.1875 0
0.3125 0.1875 0
0.3125 0.125 0
0.34375 0.125 0
0.3125 0.15625 0
0.34375 0.15625 0
0.34375 0.125 0
0.375 0.125 0
0.34375 0.15625 0
0.375 0.15625 0
0.3125 0.15625 0
0.34375 0.15625 0
0.3125 0.1875 0
0.34375 0.1875 0
0.34375 0.15625 0
0.375 0.15625 0
0.34375 0.1875 0
0.375 0.1875 0
0.25 0.1875 0
0.28125 0.1875 0
0.25 0.21875 0
0.28125 0.21875 0
0.28125 0.1875 0
0.3125 0.1875 0
0.28125 0.21875 0
0.3125 0.21875 0
0.25 0.21875 0
0.28125 0.21875 0
0.25 0.25 0
0.28125 0.25 0
0.28125 0.21875 0
0.3125 0.21875 0
0.28125 0.25 0
0.3125 0.25 0
0.3125 0.1875 0
0.34375 0.1875 0
0.3125 0.21875 0
0.34375 0.21875 0
0.34375 0.1875 0
0.375 0.1875 0
0.34375 0.21875 0
0.375 0.21875 0
0.3125 0.21875 0
0.34375 0.21875 0
0.3125 0.25 0
0.34375 0.25 0
0.34375 0.21875 0
0.375 0.21875 0
0.34375 0.25 0
0.375 0.25 0
0.375 0.125 0
0.40625 0.125 0
0.375 0.15625 0
0.40625 0.15625 0
0.40625 0.125 0
0.4375 0.125 0
0.40625 0.15625 0
0.4375 0.15625 0
0.375 0.15625 0
0.40625 0.15625 0
0.375 0.1875 0
0.40625 0.1875 0
0.40625 0.15625 0
0.4375 0.15625 0
0.40625 0.1875 0
0.4375 0.1875 0
0.4375 0.125 0
0.46875 0.125 0
0.4375 0.15625 0
0.46875 0.15625 0
0.46875 0.125 0
0.5 0.125 0
0.46875 0.15625 0
0.5 0.15625 0
0.4375 0.15625 0
0.46875 0.15625 0
0.4375 0.1875 0
0.46875 0.1875 0
0.46875 0.15625 0
0.5 0.15625 0
0.46875 0.1875 0
0.5 0.1875 0
0.375 0.1875 0
0.40625 0.1875 0
0.375 0.21875 0
0.40625 0.21875 0
0.40625 0.1875 0
0.4375 0.1875 0
0.40625 0.21875 0
0.4375 0.21875 0
0.375 0.21875 0
0.40625 0.21875 0
0.375 0.25 0
0.40625 0.25 0
0.40625 0.21875 0
0.4375 0.21875 0
0.40625 0.25 0
0.4375 0.25 0
0.4375 0.1875 0
0.46875 0.1875 0
0.4375 0.21875 0
0.46875 0.21875 0
0.46875 0.1875 0
0.5 0.1875 0
0.46875 0.21875 0
0.5 0.21875 0
0.4375 0.21875 0
0.46875 0.21875 0
0.4375 0.25 0
0.46875 0.25 0
0.46875 0.21875 0
0.5 0.21875 0
0.46875 0.25 0
0.5 0.25 0
0 0.25 0
0.03125 0.25 0
0 0.28125 0
0.03125 0.28125 0
0.03125 0.25 0
0.0625 0.25 0
0.03125 0.28125 0
0.0625 0.28125 0
0 0.28125 0
0.03125 0.28125 0
0 0.3125 0
0.03125 0.3125 0
0.03125 0.28125 0
0.0625 0.28125 0
0.03125 0.3125 0
0.0625 0.3125 0
0.0625 0.25 0
0.09375 0.25 0
0.0625 0.28125 0
0.09375 0.28125 0
0.09375 0.25 0
0.125 0.25 0
0.09375 0.28125 0
0.125 0.28125 0
0.0625 0.28125 0
0.09375 0.28125 0
0.0625 0.3125 0
0.09375 0.3125 0
0.09375 0.28125 0
0.125 0.28125 0
0.09375 0.3125 0
0.125 0.3125 0
0 0.3125 0
0.03125 0.3125 0
0 0.34375 0
0.03125 0.34375 0
0.03125 0.3125 0
0.0625 0.3125 0
0.03125 0.34375 0
0.0625 0.34375 0
0 0.34375 0
0.03125 0.34375 0
0 0.375 0
0.03125 0.375 0
0.03125 0.34375 0
0.0625 0.34375 0
0.03125 0.375 0
0.0625 0.375 0
0.0625 0.3125 0
0.09375 0.3125 0
0.0625 0.34375 0
0.09375 0.34375 0
0.09375 0.3125 0
0.125 0.3125 0
0.09375 0.34375 0
0.125 0.34375 0
0.0625 0.34375 0
0.09375 0.34375 0
0.0625 0.375 0
0.09375 0.375 0
0.09375 0.34375 0
0.125 0.34375 0
0.09375 0.375 0
0.125 0.375 0
0.125 0.25 0
0.15625 0.25 0
0.125 0.28125 0
0.15625 0.28125 0
0.15625 0.25 0
0.1875 0.25 0
0.15625 0.28125 0
0.1875 0.28125 0
0.125 0.28125 0
0.15625 0.28125 0
0.125 0.3125 0
0.15625 0.3125 0
0.15625 0.28125 0
0.1875 0.28125 0
0.15625 0.3125 0
0.1875 0.3125 0
0.1875 0.25 0
0.21875 0.25 0
0.1875 0.28125 0
0.21875 0.28125 0
0.21875 0.25 0
0.25 0.25 0
0.21875 0.28125 0
0.25 0.28125 0
0.1875 0.28125 0
0.21875 0.28125 0
0.1875 0.3125 0
0.21875 0.3125 0
0.21875 0.28125 0
0.25 0.28125 0
0.21875 0.3125 0
0.25 0.3125 0
0.125 0.3125 0
0.15625 0.3125 0
0.125 0.34375 0
0.15625 0.34375 0
0.15625 0.3125 0
0.1875 0.3125 0
0.15625 0.34375 0
0.1875 0.34375 0
0.125 0.34375 0
[...]
POINT_DATA 4096
SCALARS u_x double 1
LOOKUP_TABLE default
-3.08454e-06 1.48873e-05 -4.96797e-05 -5.33595e-05 1.48873e-05 2.30302e-05 -5.33595e-05 -0.000371733 -4.96797e-05 -5.33595e-05 -0.000170424 -0.000217805 -5.33595e-05 -0.000371733 -0.000217805 -0.000953917 2.30302e-05 2.03098e-05 -0.000371733 -0.000980091 2.03098e-05 1.13448e-05 -0.000980091 -0.00183366 -0.000371733 -0.000980091 -0.000953917 -0.00212741 -0.000980091 -0.00183366 -0.00212741 -0.00368047 -0.000170424 -0.000217805 -0.000305465 -0.000375697 -0.000217805 -0.000953917 -0.000375697 -0.00151763 -0.000305465 -0.000375697 -0.000406622 -0.000505056 -0.000375697 -0.00151763 -0.000505056 -0.00199333 -0.000953917 -0.00212741 -0.00151763 -0.00320245 -0.00212741 -0.00368047 -0.00320245 -0.00534894 -0.00151763 -0.00320245 -0.00199333 -0.00412149 -0.00320245 -0.00534894 -0.00412149 -0.00677349 1.13448e-05 -3.05351e-07 -0.00183366 -0.00285131 -3.05351e-07 -1.27486e-05 -0.00285131 -0.00395888 -0.00183366 -0.00285131 -0.00368047 -0.00549148 -0.00285131 -0.00395888 -0.00549148 -0.00744798 -1.27486e-05 -2.50506e-05 -0.00395888 -0.0050952 -2.50506e-05 -3.67561e-05 -0.0050952 -0.00621331 -0.00395888 -0.0050952 -0.00744798 -0.00945143 -0.0050952 -0.00621331 -0.00945143 -0.0114226 -0.00368047 -0.00549148 -0.00534894 -0.00780217 -0.00549148 -0.00744798 -0.00780217 -0.010427 -0.00534894 -0.00780217 -0.00677349 -0.00976041 -0.00780217 -0.010427 -0.00976041 -0.012928 -0.00744798 -0.00945143 -0.010427 -0.0131026 -0.00945143 -0.0114226 -0.0131026 -0.0157295 -0.010427 -0.0131026 -0.012928 -0.0161402 -0.0131026 -0.0157295 -0.0161402 -0.0192844 -0.000406622 -0.000505056 -0.000448847 -0.000611166 -0.000505056 -0.00199333 -0.000611166 -0.00237858 -0.000448847 -0.000611166 -0.000419503 -0.00070467 -0.000611166 -0.00237858 -0.00070467 -0.00269474 -0.00199333 -0.00412149 -0.00237858 -0.00488414 -0.00412149 -0.00677349 -0.00488414 -0.00796843 -0.00237858 -0.00488414 -0.00269474 -0.00552652 -0.00488414 -0.00796843 -0.00552652 -0.00898828 -0.000419503 -0.00070467 -0.000311562 -0.000795698 -0.00070467 -0.00269474 -0.000795698 -0.00296814 -0.000311562 -0.000795698 -0.000120363 -0.000892825 -0.000795698 -0.00296814 -0.000892825 -0.00322347 -0.00269474 -0.00552652 -0.00296814 -0.00609536 -0.00552652 -0.00898828 -0.00609536 -0.00990128 -0.00296814 -0.00609536 -0.00322347 -0.00663627 -0.00609536 -0.00990128 -0.00663627 -0.0107748 -0.00677349 -0.00976041 -0.00796843 -0.0114098 -0.00976041 -0.012928 -0.0114098 -0.0150346 -0.00796843 -0.0114098 -0.00898828 -0.0128299 -0.0114098 -0.0150346 -0.0128299 -0.016857 -0.012928 -0.0161402 -0.0150346 -0.0186933 -0.0161402 -0.0192844 -0.0186933 -0.0222638 -0.0150346 -0.0186933 -0.016857 -0.0209072 -0.0186933 -0.0222638 -0.0209072 -0.0248502 -0.00898828 -0.0128299 -0.00990128 -0.0141125 -0.0128299 -0.016857 -0.0141125 -0.0185134 -0.00990128 -0.0141125 -0.0107748 -0.0153473 -0.0141125 -0.0185134 -0.0153473 -0.0201161 -0.016857 -0.0209072 -0.0185134 -0.0229286 -0.0209072 -0.0248502 -0.0229286 -0.0272192 -0.0185134 -0.0229286 -0.0201161 -0.0248923 -0.0229286 -0.0272192 -0.0248923 -0.0295286 -3.67561e-05 -4.76654e-05 -0.00621331 -0.00727807 -4.76654e-05 -5.7689e-05 -0.00727807 -0.00826321 -0.00621331 -0.00727807 -0.0114226 -0.0133001 -0.00727807 -0.00826321 -0.0133001 -0.0150366 -5.7689e-05 -6.6772e-05 -0.00826321 -0.00914849 -6.6772e-05 -7.48532e-05 -0.00914849 -0.00991757 -0.00826321 -0.00914849 -0.0150366 -0.0165951 -0.00914849 -0.00991757 -0.0165951 -0.0179459 -0.0114226 -0.0133001 -0.0157295 -0.0182286 -0.0133001 -0.0150366 -0.0182286 -0.0205377 -0.0157295 -0.0182286 -0.0192844 -0.0222702 -0.0182286 -0.0205377 -0.0222702 -0.0250254 -0.0150366 -0.0165951 -0.0205377 -0.0226074 -0.0165951 -0.0179459 -0.0226074 -0.0243979 -0.0205377 -0.0226074 -0.0250254 -0.0274924 -0.0226074 -0.0243979 -0.0274924 -0.029624 -7.48532e-05 -8.18398e-05 -0.00991757 -0.0105565 -8.18398e-05 -8.76063e-05 -0.0105565 -0.0110529 -0.00991757 -0.0105565 -0.0179459 -0.0190638 -0.0105565 -0.0110529 -0.0190638 -0.0199273 -8.76063e-05 -9.2006e-05 -0.0110529 -0.0113959 -9.2006e-05 -9.48768e-05 -0.0113959 -0.0115755 -0.0110529 -0.0113959 -0.0199273 -0.0205173 -0.0113959 -0.0115755 -0.0205173 -0.0208176 -0.0179459 -0.0190638 -0.0243979 -0.0258756 -0.0190638 -0.0199273 -0.0258756 -0.0270121 -0.0243979 -0.0258756 -0.029624 -0.0313809 -0.0258756 -0.0270121 -0.0313809 -0.0327295 -0.0199273 -0.0205173 -0.0270121 -0.0277827 -0.0205173 -0.0208176 -0.0277827 -0.0281666 -0.0270121 -0.0277827 -0.0327295 -0.0336408 -0.0277827 -0.0281666 -0.0336408 -0.0340908 -0.0192844 -0.0222702 -0.0222638 -0.0256481 -0.0222702 -0.0250254 -0.0256481 -0.0287676 -0.0222638 -0.0256481 -0.0248502 -0.0285819 -0.0256481 -0.0287676 -0.0285819 -0.0320194 -0.0250254 -0.0274924 -0.0287676 -0.0315592 -0.0274924 -0.029624 -0.0315592 -0.0339709 -0.0287676 -0.0315592 -0.0320194 -0.0350961 -0.0315592 -0.0339709 -0.0350961 -0.0377571 -0.0248502 -0.0285819 -0.0272192 -0.0312762 -0.0285819 -0.0320194 -0.0312762 -0.0350136 -0.0272192 -0.0312762 -0.0295286 -0.0339113 -0.0312762 -0.0350136 -0.0339113 -0.0379516 -0.0320194 -0.0350961 -0.0350136 -0.0383624 -0.0350961 -0.0377571 -0.0383624 -0.0412654 -0.0350136 -0.0383624 -0.0379516 -0.0415791 -0.0383624 -0.0412654 -0.0415791 -0.0447352 -0.029624 -0.0313809 -0.0339709 -0.0359593 -0.0313809 -0.0327295 -0.0359593 -0.0374868 -0.0339709 -0.0359593 -0.0377571 -0.0399557 -0.0359593 -0.0374868 -0.0399557 -0.0416513 -0.0327295 -0.0336408 -0.0374868 -0.0385212 -0.0336408 -0.0340908 -0.0385212 -0.0390352 -0.0374868 -0.0385212 -0.0416513 -0.0428087 -0.0385212 -0.0390352 -0.0428087 -0.0433971 -0.0377571 -0.0399557 -0.0412654 -0.0436739 -0.0399557 -0.0416513 -0.0436739 -0.0455447 -0.0412654 -0.0436739 -0.0447352 -0.0473693 -0.0436739 -0.0455447 -0.0473693 -0.049436 -0.0416513 -0.0428087 -0.0455447 -0.046839 -0.0428087 -0.0433971 -0.046839 -0.0475225 -0.0455447 -0.046839 -0.049436 -0.050893 -0.046839 -0.0475225 -0.050893 -0.0517012 -0.000120363 -0.000892825 0.00015825 -0.00100299 -0.000892825 -0.00322347 -0.00100299 -0.00348157 0.00015825 -0.00100299 0.000528967 -0.0011318 -0.00100299 -0.00348157 -0.0011318 -0.00375921 -0.00322347 -0.00663627 -0.00348157 -0.00718899 -0.00663627 -0.0107748 -0.00718899 -0.0116683 -0.00348157 -0.00718899 -0.00375921 -0.00778631 -0.00718899 -0.0116683 -0.00778631 -0.0126315 0.000528967 -0.0011318 0.00099766 -0.00128399 -0.0011318 -0.00375921 -0.00128399 -0.00406991 0.00099766 -0.00128399 0.0015717 -0.00146384 -0.00128399 -0.00406991 -0.00146384 -0.00442505 -0.00375921 -0.00778631 -0.00406991 -0.00845509 -0.00778631 -0.0126315 -0.00845509 -0.0137054 -0.00406991 -0.00845509 -0.00442505 -0.00921821 -0.00845509 -0.0137054 -0.00921821 -0.0149248 -0.0107748 -0.0153473 -0.0116683 -0.0166133 -0.0153473 -0.0201161 -0.0166133 -0.021763 -0.0116683 -0.0166133 -0.0126315 -0.0179769 -0.0166133 -0.021763 -0.0179769 -0.023536 -0.0201161 -0.0248923 -0.021763 -0.0269147 -0.0248923 -0.0295286 -0.0269147 -0.0319124 -0.021763 -0.0269147 -0.023536 -0.0290917 -0.0269147 -0.0319124 -0.0290917 -0.0344791 -0.0126315 -0.0179769 -0.0137054 -0.0194925 -0.0179769 -0.023536 -0.0194925 -0.0255016 -0.0137054 -0.0194925 -0.0149248 -0.0212059 -0.0194925 -0.0255016 -0.0212059 -0.0277148 -0.023536 -0.0290917 -0.0255016 -0.0315003 -0.0290917 -0.0344791 -0.0315003 -0.0373145 -0.0255016 -0.0315003 -0.0277148 -0.0342026 -0.0315003 -0.0373145 -0.0342026 -0.0404858 0.0015717 -0.00146384 0.00226022 -0.0016757 -0.00146384 -0.00442505 -0.0016757 -0.00483533 0.00226022 -0.0016757 0.00307438 -0.00192449 -0.0016757 -0.00483533 -0.00192449 -0.0053122 -0.00442505 -0.00921821 -0.00483533 -0.010097 -0.00921821 -0.0149248 -0.010097 -0.0163214 -0.00483533 -0.010097 -0.0053122 -0.0111141 -0.010097 -0.0163214 -0.0111141 -0.0179282 0.00307438 -0.00192449 0.00402764 -0.00221625 -0.00192449 -0.0053122 -0.00221625 -0.00586949 0.00402764 -0.00221625 0.00513623 -0.00255878 -0.00221625 -0.00586949 -0.00255878 -0.00652505 -0.0053122 -0.0111141 -0.00586949 -0.0122958 -0.0111141 -0.0179282 -0.0122958 -0.0197822 -0.00586949 -0.0122958 -0.00652505 -0.0136752 -0.0122958 -0.0197822 -0.0136752 -0.0219286 -0.0149248 -0.0212059 -0.0163214 -0.0231581 -0.0212059 -0.0277148 -0.0231581 -0.0302236 -0.0163214 -0.0231581 -0.0179282 -0.02539 -0.0231581 -0.0302236 -0.02539 -0.0330735 -0.0277148 -0.0342026 -0.0302236 -0.0372508 -0.0342026 -0.0404858 -0.0372508 -0.0440472 -0.0302236 -0.0372508 -0.0330735 -0.0406921 -0.0372508 -0.0440472 -0.0406921 -0.0480443 -0.0179282 -0.02539 -0.0197822 -0.0279462 -0.02539 -0.0330735 -0.0279462 -0.0363123 -0.0197822 -0.0279462 -0.0219286 -0.0308787 -0.0279462 -0.0363123 -0.0308787 -0.0399925 -0.0330735 -0.0406921 -0.0363123 -0.0445727 -0.0406921 -0.0480443 -0.0445727 -0.052518 -0.0363123 -0.0445727 -0.0399925 -0.0489395 -0.0445727 -0.052518 -0.0489395 -0.0575047 -0.0295286 -0.0339113 -0.0319124 -0.0366375 -0.0339113 -0.0379516 -0.0366375 -0.0409994 -0.0319124 -0.0366375 -0.0344791 -0.0395752 -0.0366375 -0.0409994 -0.0395752 -0.0442877 -0.0379516 -0.0415791 -0.0409994 -0.0449265 -0.0415791 -0.0447352 -0.0449265 -0.0483597 -0.0409994 -0.0449265 -0.0442877 -0.0485451 -0.0449265 -0.0483597 -0.0485451 -0.0522885 -0.0344791 -0.0395752 -0.0373145 -0.0428173 -0.0395752 -0.0442877 -0.0428173 -0.0479158 -0.0373145 -0.0428173 -0.0404858 -0.0464346 -0.0428173 -0.0479158 -0.0464346 -0.0519569 -0.0442877 -0.0485451 -0.0479158 -0.0525397 -0.0485451 -0.0522885 -0.0525397 -0.0566315 -0.0479158 -0.0525397 -0.0519569 -0.0569852 -0.0525397 -0.0566315 -0.0569852 -0.0614657 -0.0447352 -0.0473693 -0.0483597 -0.0512473 -0.0473693 -0.049436 -0.0512473 -0.0535415 -0.0483597 -0.0512473 -0.0522885 -0.0554656 -0.0512473 -0.0535415 -0.0554656 -0.0580271 -0.049436 -0.050893 -0.0535415 -0.0551963 -0.050893 -0.0517012 -0.0551963 -0.0561672 -0.0535415 -0.0551963 -0.0580271 -0.0599234 -0.0551963 -0.0561672 -0.0599234 -0.0611036 -0.0522885 -0.0554656 -0.0566315 -0.06014 -0.0554656 -0.0580271 -0.06014 -0.0630149 -0.0566315 -0.06014 -0.0614657 -0.06535 -0.06014 -0.0630149 -0.06535 -0.0685888 -0.0580271 -0.0599234 -0.0630149 -0.0652037 -0.0599234 -0.0611036 -0.0652037 -0.066649 -0.0630149 -0.0652037 -0.0685888 -0.0711277 -0.0652037 -0.066649 -0.0711277 -0.0729037 -0.0404858 -0.0464346 -0.0440472 -0.0504812 -0.0464346 -0.0519569 -0.0504812 -0.0564636 -0.0440472 -0.0504812 -0.0480443 -0.0549989 -0.0504812 -0.0564636 -0.0549989 -0.0614723 -0.0519569 -0.0569852 -0.0564636 -0.0619325 -0.0569852 -0.0614657 -0.0619325 -0.0668401 -0.0564636 -0.0619325 -0.0614723 -0.0674113 -0.0619325 -0.0668401 -0.0674113 -0.0727785 -0.0480443 -0.0549989 -0.052518 -0.0600199 -0.0549989 -0.0614723 -0.0600199 -0.0670044 -0.052518 -0.0600199 -0.0575047 -0.0655661 -0.0600199 -0.0670044 -0.0655661 -0.0730642 -0.0614723 -0.0674113 -0.0670044 -0.0734314 -0.0674113 -0.0727785 -0.0734314 -0.0792782 -0.0670044 -0.0734314 -0.0730642 -0.0799773 -0.0734314 -0.0792782 -0.0799773 -0.0863032 -0.0614657 -0.06535 -0.0668401 -0.071144 -0.06535 -0.0685888 -0.071144 -0.0747987 -0.0668401 -0.071144 -0.0727785 -0.0775408 -0.071144 -0.0747987 -0.0775408 -0.081661 -0.0685888 -0.0711277 -0.0747987 -0.0777503 -0.0711277 -0.0729037 -0.0777503 -0.0799318 -0.0747987 -0.0777503 -0.081661 -0.0850895 -0.0777503 -0.0799318 -0.0850895 -0.0877588 -0.0727785 -0.0775408 -0.0792782 -0.0845267 -0.0775408 -0.081661 -0.0845267 -0.089153 -0.0792782 -0.0845267 -0.0863032 -0.092045 -0.0845267 -0.089153 -0.092045 -0.0971988 -0.081661 -0.0850895 -0.089153 -0.0931178 -0.0850895 -0.0877588 -0.0931178 -0.0963585 -0.089153 -0.0931178 -0.0971988 -0.101743 -0.0931178 -0.0963585 -0.101743 -0.105629 -9.48768e-05 -9.60469e-05 -0.0115755 -0.0115837 -9.60469e-05 -9.53487e-05 -0.0115837 -0.0114144 -0.0115755 -0.0115837 -0.0208176 -0.020815 -0.0115837 -0.0114144 -0.020815 -0.0205004 -9.53487e-05 -9.26382e-05 -0.0114144 -0.0110644 -9.26382e-05 -8.78102e-05 -0.0110644 -0.0105338 -0.0114144 -0.0110644 -0.0205004 -0.0198693 -0.0110644 -0.0105338 -0.0198693 -0.0189239 -0.0208176 -0.020815 -0.0281666 -0.0281475 -0.020815 -0.0205004 -0.0281475 -0.0277143 -0.0281666 -0.0281475 -0.0340908 -0.0340605 -0.0281475 -0.0277143 -0.0340605 -0.0335369 -0.0205004 -0.0198693 -0.0277143 -0.0268625 -0.0198693 -0.0189239 -0.0268625 -0.0255958 -0.0277143 -0.0268625 -0.0335369 -0.0325153 -0.0268625 -0.0255958 -0.0325153 -0.0310002 -8.78102e-05 -8.08087e-05 -0.0105338 -0.00982757 -8.08087e-05 -7.16447e-05 -0.00982757 -0.00895626 -0.0105338 -0.00982757 -0.0189239 -0.017674 -0.00982757 -0.00895626 -0.017674 -0.0161396 -7.16447e-05 -6.04179e-05 -0.00895626 -0.00793769 -6.04179e-05 -4.73483e-05 -0.00793769 -0.00679854 -0.00895626 -0.00793769 -0.0161396 -0.0143529 -0.00793769 -0.00679854 -0.0143529 -0.012361 -0.0189239 -0.017674 -0.0255958 -0.0239286 -0.017674 -0.0161396 -0.0239286 -0.0218881 -0.0255958 -0.0239286 -0.0310002 -0.0290089 -0.0239286 -0.0218881 -0.0290089 -0.0265735 -0.0161396 -0.0143529 -0.0218881 -0.0195174 -0.0143529 -0.012361 -0.0195174 -0.0168782 -0.0218881 -0.0195174 -0.0265735 -0.0237448 -0.0195174 -0.0168782 -0.0237448 -0.0205951 -0.0340908 -0.0340605 -0.0390352 -0.039007 -0.0340605 -0.0335369 -0.039007 -0.0384217 -0.0390352 -0.039007 -0.0433971 -0.0433913 -0.039007 -0.0384217 -0.0433913 -0.042773 -0.0335369 -0.0325153 -0.0384217 -0.0372725 -0.0325153 -0.0310002 -0.0372725 -0.0355639 -0.0384217 -0.0372725 -0.042773 -0.0415322 -0.0372725 -0.0355639 -0.0415322 -0.0396709 -0.0433971 -0.0433913 -0.0475225 -0.0475653 -0.0433913 -0.042773 -0.0475653 -0.0469439 -0.0475225 -0.0475653 -0.0517012 -0.0518248 -0.0475653 -0.0469439 -0.0518248 -0.0512332 -0.042773 -0.0415322 -0.0469439 -0.0456433 -0.0415322 -0.0396709 -0.0456433 -0.0436606 -0.0469439 -0.0456433 -0.0512332 -0.049904 -0.0456433 -0.0436606 -0.049904 -0.0478264 -0.0310002 -0.0290089 -0.0355639 -0.0333138 -0.0290089 -0.0265735 -0.0333138 -0.0305573 -0.0355639 -0.0333138 -0.0396709 -0.0372059 -0.0333138 -0.0305573 -0.0372059 -0.0341729 -0.0265735 -0.0237448 -0.0305573 -0.0273501 -0.0237448 -0.0205951 -0.0273501 -0.0237724 -0.0305573 -0.0273501 -0.0341729 -0.030631 -0.0273501 -0.0237724 -0.030631 -0.0266664 -0.0396709 -0.0372059 -0.0436606 -0.0410091 -0.0372059 -0.0341729 -0.0410091 -0.0377229 -0.0436606 -0.0410091 -0.0478264 -0.0450071 -0.0410091 -0.0377229 -0.0450071 -0.0414765 -0.0341729 -0.030631 -0.0377229 -0.0338626 -0.030631 -0.0266664 -0.0338626 -0.0295203 -0.0377229 -0.0338626 -0.0414765 -0.0372948 -0.0338626 -0.0295203 -0.0372948 -0.0325592 -4.73483e-05 -3.28071e-05 -0.00679854 -0.00557621 -3.28071e-05 -1.7458e-05 -0.00557621 -0.00432002 -0.00679854 -0.00557621 -0.012361 -0.0102285 -0.00557621 -0.00432002 -0.0102285 -0.00803883 -1.7458e-05 -1.94653e-06 -0.00432002 -0.00309477 -1.94653e-06 1.09594e-05 -0.00309477 -0.00196737 -0.00432002 -0.00309477 -0.00803883 -0.00589752 -0.00309477 -0.00196737 -0.00589752 -0.00391532 -0.012361 -0.0102285 -0.0168782 -0.0140539 -0.0102285 -0.00803883 -0.0140539 -0.0111508 -0.0168782 -0.0140539 -0.0205951 -0.0172209 -0.0140539 -0.0111508 -0.0172209 -0.0137445 -0.00803883 -0.00589752 -0.0111508 -0.00829978 -0.00589752 -0.00391532 -0.00829978 -0.00563906 -0.0111508 -0.00829978 -0.0137445 -0.0103151 -0.00829978 -0.00563906 -0.0103151 -0.00709098 1.09594e-05 2.08739e-05 -0.00196737 -0.00107251 2.08739e-05 5.35928e-05 -0.00107251 -0.000204389 -0.00196737 -0.00107251 -0.00391532 -0.00227899 -0.00107251 -0.000204389 -0.00227899 -0.000791321 5.35928e-05 -1.03684e-05 -0.000204389 -0.000912181 -1.03684e-05 0.00748697 -0.000912181 0.0066542 -0.000204389 -0.000912181 -0.000791321 -0.00112491 -0.000912181 0.0066542 -0.00112491 0.0069115 -0.00391532 -0.00227899 -0.00563906 -0.00338279 -0.00227899 -0.000791321 -0.00338279 -0.00136377 -0.00563906 -0.00338279 -0.00709098 -0.00430906 -0.00338279 -0.00136377 -0.00430906 -0.00183846 -0.000791321 -0.00112491 -0.00136377 -0.00130304 -0.00112491 0.0069115 -0.00130304 0.00674259 -0.00136377 -0.00130304 -0.00183846 -0.00142783 -0.00130304 0.00674259 -0.00142783 0.00661801 -0.0205951 -0.0172209 -0.0237724 -0.0199312 -0.0172209 -0.0137445 -0.0199312 -0.0159621 -0.0237724 -0.0199312 -0.0266664 -0.0223962 -0.0199312 -0.0159621 -0.0223962 -0.0179693 -0.0137445 -0.0103151 -0.0159621 -0.0120304 -0.0103151 -0.00709098 -0.0120304 -0.00831434 -0.0159621 -0.0120304 -0.0179693 -0.0135689 -0.0120304 -0.00831434 -0.0135689 -0.00939522 -0.0266664 -0.0223962 -0.0295203 -0.0248233 -0.0223962 -0.0179693 -0.0248233 -0.0199364 -0.0295203 -0.0248233 -0.0325592 -0.027409 -0.0248233 -0.0199364 -0.027409 -0.0220276 -0.0179693 -0.0135689 -0.0199364 -0.0150637 -0.0135689 -0.00939522 -0.0150637 -0.0104319 -0.0199364 -0.0150637 -0.0220276 -0.0166453 -0.0150637 -0.0104319 -0.0166453 -0.0115208 -0.00709098 -0.00430906 -0.00831434 -0.00507492 -0.00430906 -0.00183846 -0.00507492 -0.00221707 -0.00831434 -0.00507492 -0.00939522 -0.00573716 -0.00507492 -0.00221707 -0.00573716 -0.00253354 -0.00183846 -0.00142783 -0.00221707 -0.00152427 -0.00142783 0.00661801 -0.00152427 0.00655159 -0.00221707 -0.00152427 -0.00253354 -0.0016085 -0.00152427 0.00655159 -0.0016085 0.00654147 -0.00939522 -0.00573716 -0.0104319 -0.00636172 -0.00573716 -0.00253354 -0.00636172 -0.00282398 -0.0104319 -0.00636172 -0.0115208 -0.00701199 -0.00636172 -0.00282398 -0.00701199 -0.00312154 -0.00253354 -0.0016085 -0.00282398 -0.00169194 -0.0016085 0.00654147 -0.00169194 0.00659081 -0.00282398 -0.00169194 -0.00312154 -0.00178469 -0.00169194 0.00659081 -0.00178469 0.00669845 -0.0517012 -0.0518248 -0.0561672 -0.0564109 -0.0518248 -0.0512332 -0.0564109 -0.0558877 -0.0561672 -0.0564109 -0.0611036 -0.0615157 -0.0564109 -0.0558877 -0.0615157 -0.0611081 -0.0512332 -0.049904 -0.0558877 -0.0545643 -0.049904 -0.0478264 -0.0545643 -0.0524189 -0.0558877 -0.0545643 -0.0611081 -0.0598334 -0.0545643 -0.0524189 -0.0598334 -0.0576543 -0.0611036 -0.0615157 -0.066649 -0.0672887 -0.0615157 -0.0611081 -0.0672887 -0.067057 -0.066649 -0.0672887 -0.0729037 -0.0738436 -0.0672887 -0.067057 -0.0738436 -0.0738653 -0.0611081 -0.0598334 -0.067057 -0.0658882 -0.0598334 -0.0576543 -0.0658882 -0.0637242 -0.067057 -0.0658882 -0.0738653 -0.0728807 -0.0658882 -0.0637242 -0.0728807 -0.0708037 -0.0478264 -0.0450071 -0.0524189 -0.049448 -0.0450071 -0.0414765 -0.049448 -0.0456742 -0.0524189 -0.049448 -0.0576543 -0.0545521 -0.049448 -0.0456742 -0.0545521 -0.0505368 -0.0414765 -0.0372948 -0.0456742 -0.0411552 -0.0372948 -0.0325592 -0.0411552 -0.0359927 -0.0456742 -0.0411552 -0.0505368 -0.0456595 -0.0411552 -0.0359927 -0.0456595 -0.0400243 -0.0576543 -0.0545521 -0.0637242 -0.060524 -0.0545521 -0.0505368 -0.060524 -0.0562782 -0.0637242 -0.060524 -0.0708037 -0.0675628 -0.060524 -0.0562782 -0.0675628 -0.0631189 -0.0505368 -0.0456595 -0.0562782 -0.051025 -0.0456595 -0.0400243 -0.051025 -0.0448662 -0.0562782 -0.051025 -0.0631189 -0.0574865 -0.051025 -0.0448662 -0.0574865 -0.0507575 -0.0729037 -0.0738436 -0.0799318 -0.0812598 -0.0738436 -0.0738653 -0.0812598 -0.081634 -0.0799318 -0.0812598 -0.0877588 -0.0895773 -0.0812598 -0.081634 -0.0895773 -0.0904268 -0.0738653 -0.0728807 -0.081634 -0.0809396 -0.0728807 -0.0708037 -0.0809396 -0.0790554 -0.081634 -0.0809396 -0.0904268 -0.0901628 -0.0809396 -0.0790554 -0.0901628 -0.0886211 -0.0877588 -0.0895773 -0.0963585 -0.0987803 -0.0895773 -0.0904268 -0.0987803 -0.10025 -0.0963585 -0.0987803 -0.105629 -0.108766 -0.0987803 -0.10025 -0.108766 -0.111013 -0.0904268 -0.0901628 -0.10025 -0.100593 -0.0901628 -0.0886211 -0.100593 -0.0995951 -0.10025 -0.100593 -0.111013 -0.112168 -0.100593 -0.0995951 -0.112168 -0.111968 -0.0708037 -0.0675628 -0.0790554 -0.0758681 -0.0675628 -0.0631189 -0.0758681 -0.0712944 -0.0790554 -0.0758681 -0.0886211 -0.0856335 -0.0758681 -0.0712944 -0.0856335 -0.0810539 -0.0631189 -0.0574865 -0.0712944 -0.0653099 -0.0574865 -0.0507575 -0.0653099 -0.0579819 -0.0712944 -0.0653099 -0.0810539 -0.0747957 -0.0653099 -0.0579819 -0.0747957 -0.0668786 -0.0886211 -0.0856335 -0.0995951 -0.0970198 -0.0856335 -0.0810539 -0.0970198 -0.0926347 -0.0995951 -0.0970198 -0.111968 -0.110092 -0.0970198 -0.0926347 -0.110092 -0.106199