# vtk DataFile Version 3.0
#This file was generated by the deal.II library on 2026/1/5 at 14:19:39
ASCII
DATASET UNSTRUCTURED_GRID

POINTS 4096 double
0 0 0
0.03125 0 0
0 0.03125 0
0.03125 0.03125 0
0.03125 0 0
0.0625 0 0
0.03125 0.03125 0
0.0625 0.03125 0
0 0.03125 0
0.03125 0.03125 0
0 0.0625 0
0.03125 0.0625 0
0.03125 0.03125 0
0.0625 0.03125 0
0.03125 0.0625 0
0.0625 0.0625 0
0.0625 0 0
0.09375 0 0
0.0625 0.03125 0
0.09375 0.03125 0
0.09375 0 0
0.125 0 0
0.09375 0.03125 0
0.125 0.03125 0
0.0625 0.03125 0
0.09375 0.03125 0
0.0625 0.0625 0
0.09375 0.0625 0
0.09375 0.03125 0
0.125 0.03125 0
0.09375 0.0625 0
0.125 0.0625 0
0 0.0625 0
0.03125 0.0625 0
0 0.09375 0
0.03125 0.09375 0
0.03125 0.0625 0
0.0625 0.0625 0
0.03125 0.09375 0
0.0625 0.09375 0
0 0.09375 0
0.03125 0.09375 0
0 0.125 0
0.03125 0.125 0
0.03125 0.09375 0
0.0625 0.09375 0
0.03125 0.125 0
0.0625 0.125 0
0.0625 0.0625 0
0.09375 0.0625 0
0.0625 0.09375 0
0.09375 0.09375 0
0.09375 0.0625 0
0.125 0.0625 0
0.09375 0.09375 0
0.125 0.09375 0
0.0625 0.09375 0
0.09375 0.09375 0
0.0625 0.125 0
0.09375 0.125 0
0.09375 0.09375 0
0.125 0.09375 0
0.09375 0.125 0
0.125 0.125 0
0.125 0 0
0.15625 0 0
0.125 0.03125 0
0.15625 0.03125 0
0.15625 0 0
0.1875 0 0
0.15625 0.03125 0
0.1875 0.03125 0
0.125 0.03125 0
0.15625 0.03125 0
0.125 0.0625 0
0.15625 0.0625 0
0.15625 0.03125 0
0.1875 0.03125 0
0.15625 0.0625 0
0.1875 0.0625 0
0.1875 0 0
0.21875 0 0
0.1875 0.03125 0
0.21875 0.03125 0
0.21875 0 0
0.25 0 0
0.21875 0.03125 0
0.25 0.03125 0
0.1875 0.03125 0
0.21875 0.03125 0
0.1875 0.0625 0
0.21875 0.0625 0
0.21875 0.03125 0
0.25 0.03125 0
0.21875 0.0625 0
0.25 0.0625 0
0.125 0.0625 0
0.15625 0.0625 0
0.125 0.09375 0
0.15625 0.09375 0
0.15625 0.0625 0
0.1875 0.0625 0
0.15625 0.09375 0
0.1875 0.09375 0
0.125 0.09375 0
0.15625 0.09375 0
0.125 0.125 0
0.15625 0.125 0
0.15625 0.09375 0
0.1875 0.09375 0
0.15625 0.125 0
0.1875 0.125 0
0.1875 0.0625 0
0.21875 0.0625 0
0.1875 0.09375 0
0.21875 0.09375 0
0.21875 0.0625 0
0.25 0.0625 0
0.21875 0.09375 0
0.25 0.09375 0
0.1875 0.09375 0
0.21875 0.09375 0
0.1875 0.125 0
0.21875 0.125 0
0.21875 0.09375 0
0.25 0.09375 0
0.21875 0.125 0
0.25 0.125 0
0 0.125 0
0.03125 0.125 0
0 0.15625 0
0.03125 0.15625 0
0.03125 0.125 0
0.0625 0.125 0
0.03125 0.15625 0
0.0625 0.15625 0
0 0.15625 0
0.03125 0.15625 0
0 0.1875 0
0.03125 0.1875 0
0.03125 0.15625 0
0.0625 0.15625 0
0.03125 0.1875 0
0.0625 0.1875 0
0.0625 0.125 0
0.09375 0.125 0
0.0625 0.15625 0
0.09375 0.15625 0
0.09375 0.125 0
0.125 0.125 0
0.09375 0.15625 0
0.125 0.15625 0
0.0625 0.15625 0
0.09375 0.15625 0
0.0625 0.1875 0
0.09375 0.1875 0
0.09375 0.15625 0
0.125 0.15625 0
0.09375 0.1875 0
0.125 0.1875 0
0 0.1875 0
0.03125 0.1875 0
0 0.21875 0
0.03125 0.21875 0
0.03125 0.1875 0
0.0625 0.1875 0
0.03125 0.21875 0
0.0625 0.21875 0
0 0.21875 0
0.03125 0.21875 0
0 0.25 0
0.03125 0.25 0
0.03125 0.21875 0
0.0625 0.21875 0
0.03125 0.25 0
0.0625 0.25 0
0.0625 0.1875 0
0.09375 0.1875 0
0.0625 0.21875 0
0.09375 0.21875 0
0.09375 0.1875 0
0.125 0.1875 0
0.09375 0.21875 0
0.125 0.21875 0
0.0625 0.21875 0
0.09375 0.21875 0
0.0625 0.25 0
0.09375 0.25 0
0.09375 0.21875 0
0.125 0.21875 0
0.09375 0.25 0
0.125 0.25 0
0.125 0.125 0
0.15625 0.125 0
0.125 0.15625 0
0.15625 0.15625 0
0.15625 0.125 0
0.1875 0.125 0
0.15625 0.15625 0
0.1875 0.15625 0
0.125 0.15625 0
0.15625 0.15625 0
0.125 0.1875 0
0.15625 0.1875 0
0.15625 0.15625 0
0.1875 0.15625 0
0.15625 0.1875 0
0.1875 0.1875 0
0.1875 0.125 0
0.21875 0.125 0
0.1875 0.15625 0
0.21875 0.15625 0
0.21875 0.125 0
0.25 0.125 0
0.21875 0.15625 0
0.25 0.15625 0
0.1875 0.15625 0
0.21875 0.15625 0
0.1875 0.1875 0
0.21875 0.1875 0
0.21875 0.15625 0
0.25 0.15625 0
0.21875 0.1875 0
0.25 0.1875 0
0.125 0.1875 0
0.15625 0.1875 0
0.125 0.21875 0
0.15625 0.21875 0
0.15625 0.1875 0
0.1875 0.1875 0
0.15625 0.21875 0
0.1875 0.21875 0
0.125 0.21875 0
0.15625 0.21875 0
0.125 0.25 0
0.15625 0.25 0
0.15625 0.21875 0
0.1875 0.21875 0
0.15625 0.25 0
0.1875 0.25 0
0.1875 0.1875 0
0.21875 0.1875 0
0.1875 0.21875 0
0.21875 0.21875 0
0.21875 0.1875 0
0.25 0.1875 0
0.21875 0.21875 0
0.25 0.21875 0
0.1875 0.21875 0
0.21875 0.21875 0
0.1875 0.25 0
0.21875 0.25 0
0.21875 0.21875 0
0.25 0.21875 0
0.21875 0.25 0
0.25 0.25 0
0.25 0 0
0.28125 0 0
0.25 0.03125 0
0.28125 0.03125 0
0.28125 0 0
0.3125 0 0
0.28125 0.03125 0
0.3125 0.03125 0
0.25 0.03125 0
0.28125 0.03125 0
0.25 0.0625 0
0.28125 0.0625 0
0.28125 0.03125 0
0.3125 0.03125 0
0.28125 0.0625 0
0.3125 0.0625 0
0.3125 0 0
0.34375 0 0
0.3125 0.03125 0
0.34375 0.03125 0
0.34375 0 0
0.375 0 0
0.34375 0.03125 0
0.375 0.03125 0
0.3125 0.03125 0
0.34375 0.03125 0
0.3125 0.0625 0
0.34375 0.0625 0
0.34375 0.03125 0
0.375 0.03125 0
0.34375 0.0625 0
0.375 0.0625 0
0.25 0.0625 0
0.28125 0.0625 0
0.25 0.09375 0
0.28125 0.09375 0
0.28125 0.0625 0
0.3125 0.0625 0
0.28125 0.09375 0
0.3125 0.09375 0
0.25 0.09375 0
0.28125 0.09375 0
0.25 0.125 0
0.28125 0.125 0
0.28125 0.09375 0
0.3125 0.09375 0
0.28125 0.125 0
0.3125 0.125 0
0.3125 0.0625 0
0.34375 0.0625 0
0.3125 0.09375 0
0.34375 0.09375 0
0.34375 0.0625 0
0.375 0.0625 0
0.34375 0.09375 0
0.375 0.09375 0
0.3125 0.09375 0
0.34375 0.09375 0
0.3125 0.125 0
0.34375 0.125 0
0.34375 0.09375 0
0.375 0.09375 0
0.34375 0.125 0
0.375 0.125 0
0.375 0 0
0.40625 0 0
0.375 0.03125 0
0.40625 0.03125 0
0.40625 0 0
0.4375 0 0
0.40625 0.03125 0
0.4375 0.03125 0
0.375 0.03125 0
0.40625 0.03125 0
0.375 0.0625 0
0.40625 0.0625 0
0.40625 0.03125 0
0.4375 0.03125 0
0.40625 0.0625 0
0.4375 0.0625 0
0.4375 0 0
0.46875 0 0
0.4375 0.03125 0
0.46875 0.03125 0
0.46875 0 0
0.5 0 0
0.46875 0.03125 0
0.5 0.03125 0
0.4375 0.03125 0
0.46875 0.03125 0
0.4375 0.0625 0
0.46875 0.0625 0
0.46875 0.03125 0
0.5 0.03125 0
0.46875 0.0625 0
0.5 0.0625 0
0.375 0.0625 0
0.40625 0.0625 0
0.375 0.09375 0
0.40625 0.09375 0
0.40625 0.0625 0
0.4375 0.0625 0
0.40625 0.09375 0
0.4375 0.09375 0
0.375 0.09375 0
0.40625 0.09375 0
0.375 0.125 0
0.40625 0.125 0
0.40625 0.09375 0
0.4375 0.09375 0
0.40625 0.125 0
0.4375 0.125 0
0.4375 0.0625 0
0.46875 0.0625 0
0.4375 0.09375 0
0.46875 0.09375 0
0.46875 0.0625 0
0.5 0.0625 0
0.46875 0.09375 0
0.5 0.09375 0
0.4375 0.09375 0
0.46875 0.09375 0
0.4375 0.125 0
0.46875 0.125 0
0.46875 0.09375 0
0.5 0.09375 0
0.46875 0.125 0
0.5 0.125 0
0.25 0.125 0
0.28125 0.125 0
0.25 0.15625 0
0.28125 0.15625 0
0.28125 0.125 0
0.3125 0.125 0
0.28125 0.15625 0
0.3125 0.15625 0
0.25 0.15625 0
0.28125 0.15625 0
0.25 0.1875 0
0.28125 0.1875 0
0.28125 0.15625 0
0.3125 0.15625 0
0.28125 0.1875 0
0.3125 0.1875 0
0.3125 0.125 0
0.34375 0.125 0
0.3125 0.15625 0
0.34375 0.15625 0
0.34375 0.125 0
0.375 0.125 0
0.34375 0.15625 0
0.375 0.15625 0
0.3125 0.15625 0
0.34375 0.15625 0
0.3125 0.1875 0
0.34375 0.1875 0
0.34375 0.15625 0
0.375 0.15625 0
0.34375 0.1875 0
0.375 0.1875 0
0.25 0.1875 0
0.28125 0.1875 0
0.25 0.21875 0
0.28125 0.21875 0
0.28125 0.1875 0
0.3125 0.1875 0
0.28125 0.21875 0
0.3125 0.21875 0
0.25 0.21875 0
0.28125 0.21875 0
0.25 0.25 0
0.28125 0.25 0
0.28125 0.21875 0
0.3125 0.21875 0
0.28125 0.25 0
0.3125 0.25 0
0.3125 0.1875 0
0.34375 0.1875 0
0.3125 0.21875 0
0.34375 0.21875 0
0.34375 0.1875 0
0.375 0.1875 0
0.34375 0.21875 0
0.375 0.21875 0
0.3125 0.21875 0
0.34375 0.21875 0
0.3125 0.25 0
0.34375 0.25 0
0.34375 0.21875 0
0.375 0.21875 0
0.34375 0.25 0
0.375 0.25 0
0.375 0.125 0
0.40625 0.125 0
0.375 0.15625 0
0.40625 0.15625 0
0.40625 0.125 0
0.4375 0.125 0
0.40625 0.15625 0
0.4375 0.15625 0
0.375 0.15625 0
0.40625 0.15625 0
0.375 0.1875 0
0.40625 0.1875 0
0.40625 0.15625 0
0.4375 0.15625 0
0.40625 0.1875 0
0.4375 0.1875 0
0.4375 0.125 0
0.46875 0.125 0
0.4375 0.15625 0
0.46875 0.15625 0
0.46875 0.125 0
0.5 0.125 0
0.46875 0.15625 0
0.5 0.15625 0
0.4375 0.15625 0
0.46875 0.15625 0
0.4375 0.1875 0
0.46875 0.1875 0
0.46875 0.15625 0
0.5 0.15625 0
0.46875 0.1875 0
0.5 0.1875 0
0.375 0.1875 0
0.40625 0.1875 0
0.375 0.21875 0
0.40625 0.21875 0
0.40625 0.1875 0
0.4375 0.1875 0
0.40625 0.21875 0
0.4375 0.21875 0
0.375 0.21875 0
0.40625 0.21875 0
0.375 0.25 0
0.40625 0.25 0
0.40625 0.21875 0
0.4375 0.21875 0
0.40625 0.25 0
0.4375 0.25 0
0.4375 0.1875 0
0.46875 0.1875 0
0.4375 0.21875 0
0.46875 0.21875 0
0.46875 0.1875 0
0.5 0.1875 0
0.46875 0.21875 0
0.5 0.21875 0
0.4375 0.21875 0
0.46875 0.21875 0
0.4375 0.25 0
0.46875 0.25 0
0.46875 0.21875 0
0.5 0.21875 0
0.46875 0.25 0
0.5 0.25 0
0 0.25 0
0.03125 0.25 0
0 0.28125 0
0.03125 0.28125 0
0.03125 0.25 0
0.0625 0.25 0
0.03125 0.28125 0
0.0625 0.28125 0
0 0.28125 0
0.03125 0.28125 0
0 0.3125 0
0.03125 0.3125 0
0.03125 0.28125 0
0.0625 0.28125 0
0.03125 0.3125 0
0.0625 0.3125 0
0.0625 0.25 0
0.09375 0.25 0
0.0625 0.28125 0
0.09375 0.28125 0
0.09375 0.25 0
0.125 0.25 0
0.09375 0.28125 0
0.125 0.28125 0
0.0625 0.28125 0
0.09375 0.28125 0
0.0625 0.3125 0
0.09375 0.3125 0
0.09375 0.28125 0
0.125 0.28125 0
0.09375 0.3125 0
0.125 0.3125 0
0 0.3125 0
0.03125 0.3125 0
0 0.34375 0
0.03125 0.34375 0
0.03125 0.3125 0
0.0625 0.3125 0
0.03125 0.34375 0
0.0625 0.34375 0
0 0.34375 0
0.03125 0.34375 0
0 0.375 0
0.03125 0.375 0
0.03125 0.34375 0
0.0625 0.34375 0
0.03125 0.375 0
0.0625 0.375 0
0.0625 0.3125 0
0.09375 0.3125 0
0.0625 0.34375 0
0.09375 0.34375 0
0.09375 0.3125 0
0.125 0.3125 0
0.09375 0.34375 0
0.125 0.34375 0
0.0625 0.34375 0
0.09375 0.34375 0
0.0625 0.375 0
0.09375 0.375 0
0.09375 0.34375 0
0.125 0.34375 0
0.09375 0.375 0
0.125 0.375 0
0.125 0.25 0
0.15625 0.25 0
0.125 0.28125 0
0.15625 0.28125 0
0.15625 0.25 0
0.1875 0.25 0
0.15625 0.28125 0
0.1875 0.28125 0
0.125 0.28125 0
0.15625 0.28125 0
0.125 0.3125 0
0.15625 0.3125 0
0.15625 0.28125 0
0.1875 0.28125 0
0.15625 0.3125 0
0.1875 0.3125 0
0.1875 0.25 0
0.21875 0.25 0
0.1875 0.28125 0
0.21875 0.28125 0
0.21875 0.25 0
0.25 0.25 0
0.21875 0.28125 0
0.25 0.28125 0
0.1875 0.28125 0
0.21875 0.28125 0
0.1875 0.3125 0
0.21875 0.3125 0
0.21875 0.28125 0
0.25 0.28125 0
0.21875 0.3125 0
0.25 0.3125 0
0.125 0.3125 0
0.15625 0.3125 0
0.125 0.34375 0
0.15625 0.34375 0
0.15625 0.3125 0
0.1875 0.3125 0
0.15625 0.34375 0
0.1875 0.34375 0
0.125 0.34375 0
[...]
POINT_DATA 4096
SCALARS u_x double 1
LOOKUP_TABLE default
-2.07419e-06 1.4507e-05 -4.61689e-05 -4.00403e-05 1.4507e-05 2.36249e-05 -4.00403e-05 -0.000335243 -4.61689e-05 -4.00403e-05 -0.000168308 -0.000199553 -4.00403e-05 -0.000335243 -0.000199553 -0.000907942 2.36249e-05 2.22412e-05 -0.000335243 -0.00091968 2.22412e-05 1.43403e-05 -0.00091968 -0.00176005 -0.000335243 -0.00091968 -0.000907942 -0.00205908 -0.00091968 -0.00176005 -0.00205908 -0.00361024 -0.000168308 -0.000199553 -0.000312053 -0.000359856 -0.000199553 -0.000907942 -0.000359856 -0.00148657 -0.000312053 -0.000359856 -0.000428915 -0.000496156 -0.000359856 -0.00148657 -0.000496156 -0.00199415 -0.000907942 -0.00205908 -0.00148657 -0.00316922 -0.00205908 -0.00361024 -0.00316922 -0.00534401 -0.00148657 -0.00316922 -0.00199415 -0.00415361 -0.00316922 -0.00534401 -0.00415361 -0.00687754 1.43403e-05 3.40186e-06 -0.00176005 -0.00278103 3.40186e-06 -8.64011e-06 -0.00278103 -0.00390992 -0.00176005 -0.00278103 -0.00361024 -0.00544758 -0.00278103 -0.00390992 -0.00544758 -0.00746057 -8.64011e-06 -2.07815e-05 -0.00390992 -0.00508409 -2.07815e-05 -3.24956e-05 -0.00508409 -0.00625333 -0.00390992 -0.00508409 -0.00746057 -0.00954809 -0.00508409 -0.00625333 -0.00954809 -0.0116254 -0.00361024 -0.00544758 -0.00534401 -0.00786308 -0.00544758 -0.00746057 -0.00786308 -0.0105924 -0.00534401 -0.00786308 -0.00687754 -0.00998175 -0.00786308 -0.0105924 -0.00998175 -0.0133116 -0.00746057 -0.00954809 -0.0105924 -0.0134073 -0.00954809 -0.0116254 -0.0134073 -0.0162006 -0.0105924 -0.0134073 -0.0133116 -0.0167251 -0.0134073 -0.0162006 -0.0167251 -0.0201004 -0.000428915 -0.000496156 -0.000492222 -0.000611286 -0.000496156 -0.00199415 -0.000611286 -0.00242062 -0.000492222 -0.000611286 -0.000487342 -0.000714145 -0.000611286 -0.00242062 -0.000714145 -0.00278102 -0.00199415 -0.00415361 -0.00242062 -0.00499871 -0.00415361 -0.00687754 -0.00499871 -0.00820645 -0.00242062 -0.00499871 -0.00278102 -0.00572929 -0.00499871 -0.00820645 -0.00572929 -0.00936885 -0.000487342 -0.000714145 -0.000405394 -0.000813715 -0.000714145 -0.00278102 -0.000813715 -0.00309706 -0.000405394 -0.000813715 -0.000240185 -0.000917925 -0.000813715 -0.00309706 -0.000917925 -0.00339049 -0.00278102 -0.00572929 -0.00309706 -0.00638347 -0.00572929 -0.00936885 -0.00638347 -0.0104202 -0.00309706 -0.00638347 -0.00339049 -0.00700128 -0.00638347 -0.0104202 -0.00700128 -0.0114194 -0.00687754 -0.00998175 -0.00820645 -0.0118235 -0.00998175 -0.0133116 -0.0118235 -0.0156737 -0.00820645 -0.0118235 -0.00936885 -0.0134468 -0.0118235 -0.0156737 -0.0134468 -0.0177641 -0.0133116 -0.0167251 -0.0156737 -0.0195998 -0.0167251 -0.0201004 -0.0195998 -0.0234684 -0.0156737 -0.0195998 -0.0177641 -0.0221485 -0.0195998 -0.0234684 -0.0221485 -0.0264566 -0.00936885 -0.0134468 -0.0104202 -0.0149269 -0.0134468 -0.0177641 -0.0149269 -0.019681 -0.0104202 -0.0149269 -0.0114194 -0.0163424 -0.0149269 -0.019681 -0.0163424 -0.0215234 -0.0177641 -0.0221485 -0.019681 -0.0244953 -0.0221485 -0.0264566 -0.0244953 -0.0292165 -0.019681 -0.0244953 -0.0215234 -0.0267602 -0.0244953 -0.0292165 -0.0267602 -0.03189 -3.24956e-05 -4.35257e-05 -0.00625333 -0.00737845 -4.35257e-05 -5.37464e-05 -0.00737845 -0.00842892 -0.00625333 -0.00737845 -0.0116254 -0.013624 -0.00737845 -0.00842892 -0.013624 -0.015489 -5.37464e-05 -6.30798e-05 -0.00842892 -0.0093805 -6.30798e-05 -7.14447e-05 -0.0093805 -0.0102131 -0.00842892 -0.0093805 -0.015489 -0.0171762 -0.0093805 -0.0102131 -0.0171762 -0.0186491 -0.0116254 -0.013624 -0.0162006 -0.0188838 -0.013624 -0.015489 -0.0188838 -0.0213846 -0.0162006 -0.0188838 -0.0201004 -0.0233355 -0.0188838 -0.0213846 -0.0233355 -0.0263461 -0.015489 -0.0171762 -0.0213846 -0.0236438 -0.0171762 -0.0186491 -0.0236438 -0.0256122 -0.0213846 -0.0236438 -0.0263461 -0.0290627 -0.0236438 -0.0256122 -0.0290627 -0.0314269 -7.14447e-05 -7.87287e-05 -0.0102131 -0.0109095 -7.87287e-05 -8.47849e-05 -0.0109095 -0.0114541 -0.0102131 -0.0109095 -0.0186491 -0.0198763 -0.0109095 -0.0114541 -0.0198763 -0.0208303 -8.47849e-05 -8.94407e-05 -0.0114541 -0.0118329 -8.94407e-05 -9.2505e-05 -0.0118329 -0.0120336 -0.0114541 -0.0118329 -0.0208303 -0.021487 -0.0118329 -0.0120336 -0.021487 -0.0218254 -0.0186491 -0.0198763 -0.0256122 -0.0272478 -0.0198763 -0.0208303 -0.0272478 -0.028514 -0.0256122 -0.0272478 -0.0314269 -0.0333889 -0.0272478 -0.028514 -0.0333889 -0.0349054 -0.0208303 -0.021487 -0.028514 -0.0293792 -0.021487 -0.0218254 -0.0293792 -0.0298163 -0.028514 -0.0293792 -0.0349054 -0.0359387 -0.0293792 -0.0298163 -0.0359387 -0.036457 -0.0201004 -0.0233355 -0.0234684 -0.0271682 -0.0233355 -0.0263461 -0.0271682 -0.030607 -0.0234684 -0.0271682 -0.0264566 -0.0305698 -0.0271682 -0.030607 -0.0305698 -0.0343902 -0.0263461 -0.0290627 -0.030607 -0.0337081 -0.0290627 -0.0314269 -0.0337081 -0.0364069 -0.030607 -0.0337081 -0.0343902 -0.0378366 -0.0337081 -0.0364069 -0.0378366 -0.04084 -0.0264566 -0.0305698 -0.0292165 -0.0337198 -0.0305698 -0.0343902 -0.0337198 -0.0379034 -0.0292165 -0.0337198 -0.03189 -0.0367822 -0.0337198 -0.0379034 -0.0367822 -0.0413319 -0.0343902 -0.0378366 -0.0379034 -0.0416826 -0.0378366 -0.04084 -0.0416826 -0.0449857 -0.0379034 -0.0416826 -0.0413319 -0.0454524 -0.0416826 -0.0449857 -0.0454524 -0.0490699 -0.0314269 -0.0333889 -0.0364069 -0.0386478 -0.0333889 -0.0349054 -0.0386478 -0.0403823 -0.0364069 -0.0386478 -0.04084 -0.0433406 -0.0386478 -0.0403823 -0.0433406 -0.0452854 -0.0349054 -0.0359387 -0.0403823 -0.0415678 -0.0359387 -0.036457 -0.0415678 -0.0421679 -0.0403823 -0.0415678 -0.0452854 -0.0466273 -0.0415678 -0.0421679 -0.0466273 -0.0473248 -0.04084 -0.0433406 -0.0449857 -0.0477495 -0.0433406 -0.0452854 -0.0477495 -0.0499172 -0.0449857 -0.0477495 -0.0490699 -0.0521188 -0.0477495 -0.0499172 -0.0521188 -0.0545386 -0.0452854 -0.0466273 -0.0499172 -0.0514368 -0.0466273 -0.0473248 -0.0514368 -0.0522609 -0.0499172 -0.0514368 -0.0545386 -0.056272 -0.0514368 -0.0522609 -0.056272 -0.0572647 -0.000240185 -0.000917925 1.35947e-05 -0.00103348 -0.000917925 -0.00339049 -0.00103348 -0.00368069 1.35947e-05 -0.00103348 0.000361372 -0.00116601 -0.00103348 -0.00368069 -0.00116601 -0.00398411 -0.00339049 -0.00700128 -0.00368069 -0.00761959 -0.00700128 -0.0114194 -0.00761959 -0.0124216 -0.00368069 -0.00761959 -0.00398411 -0.0082704 -0.00761959 -0.0124216 -0.0082704 -0.0134751 0.000361372 -0.00116601 0.000809401 -0.00132042 -0.00116601 -0.00398411 -0.00132042 -0.00431451 0.000809401 -0.00132042 0.00136513 -0.00150115 -0.00132042 -0.00431451 -0.00150115 -0.00468371 -0.00398411 -0.0082704 -0.00431451 -0.00898093 -0.0082704 -0.0134751 -0.00898093 -0.0146212 -0.00431451 -0.00898093 -0.00468371 -0.00977475 -0.00898093 -0.0146212 -0.00977475 -0.0158955 -0.0114194 -0.0163424 -0.0124216 -0.0177664 -0.0163424 -0.0215234 -0.0177664 -0.0233823 -0.0124216 -0.0177664 -0.0134751 -0.0192633 -0.0177664 -0.0233823 -0.0192633 -0.0253371 -0.0215234 -0.0267602 -0.0233823 -0.0290519 -0.0267602 -0.03189 -0.0290519 -0.0346028 -0.0233823 -0.0290519 -0.0253371 -0.0314636 -0.0290519 -0.0346028 -0.0314636 -0.037461 -0.0134751 -0.0192633 -0.0146212 -0.0208881 -0.0192633 -0.0253371 -0.0208881 -0.0274548 -0.0146212 -0.0208881 -0.0158955 -0.0226872 -0.0208881 -0.0274548 -0.0226872 -0.0297909 -0.0253371 -0.0314636 -0.0274548 -0.0340727 -0.0314636 -0.037461 -0.0340727 -0.0405508 -0.0274548 -0.0340727 -0.0297909 -0.0369416 -0.0340727 -0.0405508 -0.0369416 -0.0439398 0.00136513 -0.00150115 0.00203757 -0.00171265 -0.00150115 -0.00468371 -0.00171265 -0.00510263 0.00203757 -0.00171265 0.00283753 -0.00195973 -0.00171265 -0.00510263 -0.00195973 -0.00558247 -0.00468371 -0.00977475 -0.00510263 -0.0106735 -0.00977475 -0.0158955 -0.0106735 -0.01733 -0.00510263 -0.0106735 -0.00558247 -0.0116989 -0.0106735 -0.01733 -0.0116989 -0.0189559 0.00283753 -0.00195973 0.003778 -0.0022481 -0.00195973 -0.00558247 -0.0022481 -0.00613601 0.003778 -0.0022481 0.00487456 -0.00258492 -0.0022481 -0.00613601 -0.00258492 -0.00677912 -0.00558247 -0.0116989 -0.00613601 -0.012875 -0.0116989 -0.0189559 -0.012875 -0.0208064 -0.00613601 -0.012875 -0.00677912 -0.0142308 -0.012875 -0.0208064 -0.0142308 -0.0229194 -0.0158955 -0.0226872 -0.01733 -0.0247014 -0.0226872 -0.0297909 -0.0247014 -0.0323926 -0.01733 -0.0247014 -0.0189559 -0.026969 -0.0247014 -0.0323926 -0.026969 -0.0353014 -0.0297909 -0.0369416 -0.0323926 -0.040121 -0.0369416 -0.0439398 -0.040121 -0.047679 -0.0323926 -0.040121 -0.0353014 -0.0436521 -0.040121 -0.047679 -0.0436521 -0.051806 -0.0189559 -0.026969 -0.0208064 -0.0295283 -0.026969 -0.0353014 -0.0295283 -0.038556 -0.0208064 -0.0295283 -0.0229194 -0.0324207 -0.0295283 -0.038556 -0.0324207 -0.0421941 -0.0353014 -0.0436521 -0.038556 -0.0475687 -0.0436521 -0.051806 -0.0475687 -0.0563455 -0.038556 -0.0475687 -0.0421941 -0.0518982 -0.0475687 -0.0563455 -0.0518982 -0.061308 -0.03189 -0.0367822 -0.0346028 -0.0398994 -0.0367822 -0.0413319 -0.0398994 -0.0448343 -0.0346028 -0.0398994 -0.037461 -0.0431894 -0.0398994 -0.0448343 -0.0431894 -0.04854 -0.0413319 -0.0454524 -0.0448343 -0.0493199 -0.0454524 -0.0490699 -0.0493199 -0.0532815 -0.0448343 -0.0493199 -0.04854 -0.0534255 -0.0493199 -0.0532815 -0.0534255 -0.0577716 -0.037461 -0.0431894 -0.0405508 -0.046746 -0.0431894 -0.04854 -0.046746 -0.0525495 -0.0405508 -0.046746 -0.0439398 -0.0506399 -0.046746 -0.0525495 -0.0506399 -0.0569355 -0.04854 -0.0534255 -0.0525495 -0.057876 -0.0534255 -0.0577716 -0.057876 -0.0626533 -0.0525495 -0.057876 -0.0569355 -0.0627458 -0.057876 -0.0626533 -0.0627458 -0.0680032 -0.0490699 -0.0521188 -0.0532815 -0.0566518 -0.0521188 -0.0545386 -0.0566518 -0.0593667 -0.0532815 -0.0566518 -0.0577716 -0.0615102 -0.0566518 -0.0593667 -0.0615102 -0.0645745 -0.0545386 -0.056272 -0.0593667 -0.0613634 -0.056272 -0.0572647 -0.0613634 -0.0625794 -0.0593667 -0.0613634 -0.0645745 -0.0668961 -0.0613634 -0.0625794 -0.0668961 -0.0684033 -0.0577716 -0.0615102 -0.0626533 -0.0668145 -0.0615102 -0.0645745 -0.0668145 -0.0702914 -0.0626533 -0.0668145 -0.0680032 -0.0726446 -0.0668145 -0.0702914 -0.0726446 -0.0766029 -0.0645745 -0.0668961 -0.0702914 -0.0730106 -0.0668961 -0.0684033 -0.0730106 -0.0748909 -0.0702914 -0.0730106 -0.0766029 -0.0798015 -0.0730106 -0.0748909 -0.0798015 -0.0821505 -0.0439398 -0.0506399 -0.047679 -0.0549209 -0.0506399 -0.0569355 -0.0549209 -0.0617451 -0.047679 -0.0549209 -0.051806 -0.0596199 -0.0549209 -0.0617451 -0.0596199 -0.0670002 -0.0569355 -0.0627458 -0.0617451 -0.0680783 -0.0627458 -0.0680032 -0.0680783 -0.0738614 -0.0617451 -0.0680783 -0.0670002 -0.0738853 -0.0680783 -0.0738614 -0.0738853 -0.0802292 -0.051806 -0.0596199 -0.0563455 -0.0647481 -0.0596199 -0.0670002 -0.0647481 -0.0726957 -0.0563455 -0.0647481 -0.061308 -0.0702946 -0.0647481 -0.0726957 -0.0702946 -0.0787946 -0.0670002 -0.0738853 -0.0726957 -0.0801432 -0.0738853 -0.0802292 -0.0801432 -0.0870633 -0.0726957 -0.0801432 -0.0787946 -0.0867851 -0.0801432 -0.0870633 -0.0867851 -0.0942639 -0.0680032 -0.0726446 -0.0738614 -0.0790387 -0.0726446 -0.0766029 -0.0790387 -0.083548 -0.0738614 -0.0790387 -0.0802292 -0.0859888 -0.0790387 -0.083548 -0.0859888 -0.0911122 -0.0766029 -0.0798015 -0.083548 -0.0873132 -0.0798015 -0.0821505 -0.0873132 -0.0902379 -0.083548 -0.0873132 -0.0911122 -0.0955288 -0.0873132 -0.0902379 -0.0955288 -0.0991413 -0.0802292 -0.0859888 -0.0870633 -0.0934317 -0.0859888 -0.0911122 -0.0934317 -0.0992135 -0.0870633 -0.0934317 -0.0942639 -0.101232 -0.0934317 -0.0992135 -0.101232 -0.107682 -0.0911122 -0.0955288 -0.0992135 -0.104352 -0.0955288 -0.0991413 -0.104352 -0.108756 -0.0992135 -0.104352 -0.107682 -0.113578 -0.104352 -0.108756 -0.113578 -0.118846 -9.2505e-05 -9.377e-05 -0.0120336 -0.0120456 -9.377e-05 -9.30286e-05 -0.0120456 -0.0118612 -0.0120336 -0.0120456 -0.0218254 -0.0218283 -0.0120456 -0.0118612 -0.0218283 -0.021484 -9.30286e-05 -9.01032e-05 -0.0118612 -0.0114766 -9.01032e-05 -8.48718e-05 -0.0114766 -0.0108925 -0.0118612 -0.0114766 -0.021484 -0.0207872 -0.0114766 -0.0108925 -0.0207872 -0.0197415 -0.0218254 -0.0218283 -0.0298163 -0.0298036 -0.0218283 -0.021484 -0.0298036 -0.0293268 -0.0298163 -0.0298036 -0.036457 -0.0364349 -0.0298036 -0.0293268 -0.0364349 -0.0358556 -0.021484 -0.0207872 -0.0293268 -0.0283804 -0.0207872 -0.0197415 -0.0283804 -0.0269704 -0.0293268 -0.0283804 -0.0358556 -0.0347128 -0.0283804 -0.0269704 -0.0347128 -0.0330139 -8.48718e-05 -7.72892e-05 -0.0108925 -0.0101164 -7.72892e-05 -6.74086e-05 -0.0101164 -0.00916321 -0.0108925 -0.0101164 -0.0197415 -0.0183614 -0.0101164 -0.00916321 -0.0183614 -0.0166746 -6.74086e-05 -5.54117e-05 -0.00916321 -0.00805706 -5.54117e-05 -4.16424e-05 -0.00805706 -0.00683257 -0.00916321 -0.00805706 -0.0166746 -0.0147242 -0.00805706 -0.00683257 -0.0147242 -0.0125708 -0.0197415 -0.0183614 -0.0269704 -0.0251174 -0.0183614 -0.0166746 -0.0251174 -0.0228587 -0.0269704 -0.0251174 -0.0330139 -0.0307833 -0.0251174 -0.0228587 -0.0307833 -0.0280656 -0.0166746 -0.0147242 -0.0228587 -0.0202521 -0.0147242 -0.0125708 -0.0202521 -0.0173769 -0.0228587 -0.0202521 -0.0280656 -0.0249288 -0.0202521 -0.0173769 -0.0249288 -0.0214663 -0.036457 -0.0364349 -0.0421679 -0.0421532 -0.0364349 -0.0358556 -0.0421532 -0.0415033 -0.0421679 -0.0421532 -0.0473248 -0.0473435 -0.0421532 -0.0415033 -0.0473435 -0.046658 -0.0358556 -0.0347128 -0.0415033 -0.04021 -0.0347128 -0.0330139 -0.04021 -0.0382799 -0.0415033 -0.04021 -0.046658 -0.0452556 -0.04021 -0.0382799 -0.0452556 -0.0431396 -0.0473248 -0.0473435 -0.0522609 -0.0523485 -0.0473435 -0.046658 -0.0523485 -0.0516669 -0.0522609 -0.0523485 -0.0572647 -0.0574669 -0.0523485 -0.0516669 -0.0574669 -0.0568355 -0.046658 -0.0452556 -0.0516669 -0.0501957 -0.0452556 -0.0431396 -0.0501957 -0.0479322 -0.0516669 -0.0501957 -0.0568355 -0.0553395 -0.0501957 -0.0479322 -0.0553395 -0.0529654 -0.0330139 -0.0307833 -0.0382799 -0.035739 -0.0307833 -0.0280656 -0.035739 -0.0326362 -0.0382799 -0.035739 -0.0431396 -0.0403349 -0.035739 -0.0326362 -0.0403349 -0.0368921 -0.0280656 -0.0249288 -0.0326362 -0.0290469 -0.0249288 -0.0214663 -0.0290469 -0.0250756 -0.0326362 -0.0290469 -0.0368921 -0.0328918 -0.0290469 -0.0250756 -0.0328918 -0.0284482 -0.0431396 -0.0403349 -0.0479322 -0.0448965 -0.0403349 -0.0368921 -0.0448965 -0.041138 -0.0479322 -0.0448965 -0.0529654 -0.0497248 -0.0448965 -0.041138 -0.0497248 -0.0456625 -0.0368921 -0.0328918 -0.041138 -0.036741 -0.0328918 -0.0284482 -0.036741 -0.0318287 -0.041138 -0.036741 -0.0456625 -0.0408639 -0.036741 -0.0318287 -0.0408639 -0.0354609 -4.16424e-05 -2.66286e-05 -0.00683257 -0.00553592 -2.66286e-05 -1.11925e-05 -0.00553592 -0.00422484 -0.00683257 -0.00553592 -0.0125708 -0.0102937 -0.00553592 -0.00422484 -0.0102937 -0.00799055 -1.11925e-05 3.85332e-06 -0.00422484 -0.00297039 3.85332e-06 1.5772e-05 -0.00297039 -0.00184298 -0.00422484 -0.00297039 -0.00799055 -0.00577729 -0.00297039 -0.00184298 -0.00577729 -0.0037704 -0.0125708 -0.0102937 -0.0173769 -0.0143357 -0.0102937 -0.00799055 -0.0143357 -0.0112532 -0.0173769 -0.0143357 -0.0214663 -0.0177979 -0.0143357 -0.0112532 -0.0177979 -0.0140683 -0.00799055 -0.00577729 -0.0112532 -0.00827466 -0.00577729 -0.0037704 -0.00827466 -0.00554627 -0.0112532 -0.00827466 -0.0140683 -0.0104445 -0.00827466 -0.00554627 -0.0104445 -0.0070964 1.5772e-05 2.40471e-05 -0.00184298 -0.000970157 2.40471e-05 5.21788e-05 -0.000970157 -0.000161633 -0.00184298 -0.000970157 -0.0037704 -0.00214798 -0.000970157 -0.000161633 -0.00214798 -0.000727804 5.21788e-05 -8.60722e-06 -0.000161633 -0.000820371 -8.60722e-06 0.00685638 -0.000820371 0.0060931 -0.000161633 -0.000820371 -0.000727804 -0.00101955 -0.000820371 0.0060931 -0.00101955 0.00631762 -0.0037704 -0.00214798 -0.00554627 -0.00327437 -0.00214798 -0.000727804 -0.00327437 -0.00130724 -0.00554627 -0.00327437 -0.0070964 -0.00425484 -0.00327437 -0.00130724 -0.00425484 -0.00180638 -0.000727804 -0.00101955 -0.00130724 -0.00119511 -0.00101955 0.00631762 -0.00119511 0.00613925 -0.00130724 -0.00119511 -0.00180638 -0.00132314 -0.00119511 0.00613925 -0.00132314 0.00599229 -0.0214663 -0.0177979 -0.0250756 -0.0208567 -0.0177979 -0.0140683 -0.0208567 -0.0165524 -0.0250756 -0.0208567 -0.0284482 -0.0237098 -0.0208567 -0.0165524 -0.0237098 -0.0188575 -0.0140683 -0.0104445 -0.0165524 -0.0123504 -0.0104445 -0.0070964 -0.0123504 -0.00844405 -0.0165524 -0.0123504 -0.0188575 -0.0141018 -0.0123504 -0.00844405 -0.0141018 -0.00966348 -0.0284482 -0.0237098 -0.0318287 -0.026565 -0.0237098 -0.0188575 -0.026565 -0.0211525 -0.0318287 -0.026565 -0.0354609 -0.029635 -0.026565 -0.0211525 -0.029635 -0.0236152 -0.0188575 -0.0141018 -0.0211525 -0.0158297 -0.0141018 -0.00966348 -0.0158297 -0.0108498 -0.0211525 -0.0158297 -0.0236152 -0.0176742 -0.0158297 -0.0108498 -0.0176742 -0.0121057 -0.0070964 -0.00425484 -0.00844405 -0.00509138 -0.00425484 -0.00180638 -0.00509138 -0.002218 -0.00844405 -0.00509138 -0.00966348 -0.00583164 -0.00509138 -0.002218 -0.00583164 -0.00257034 -0.00180638 -0.00132314 -0.002218 -0.00142378 -0.00132314 0.00599229 -0.00142378 0.00589239 -0.002218 -0.00142378 -0.00257034 -0.00151112 -0.00142378 0.00589239 -0.00151112 0.00583923 -0.00966348 -0.00583164 -0.0108498 -0.00653857 -0.00583164 -0.00257034 -0.00653857 -0.00289751 -0.0108498 -0.00653857 -0.0121057 -0.0072788 -0.00653857 -0.00289751 -0.0072788 -0.00323403 -0.00257034 -0.00151112 -0.00289751 -0.00159595 -0.00151112 0.00583923 -0.00159595 0.00583581 -0.00289751 -0.00159595 -0.00323403 -0.00168855 -0.00159595 0.00583581 -0.00168855 0.0058801 -0.0572647 -0.0574669 -0.0625794 -0.0629537 -0.0574669 -0.0568355 -0.0629537 -0.0624299 -0.0625794 -0.0629537 -0.0684033 -0.0690218 -0.0629537 -0.0624299 -0.0690218 -0.0686782 -0.0568355 -0.0553395 -0.0624299 -0.0609616 -0.0553395 -0.0529654 -0.0609616 -0.0585196 -0.0624299 -0.0609616 -0.0686782 -0.0673054 -0.0609616 -0.0585196 -0.0673054 -0.0648522 -0.0684033 -0.0690218 -0.0748909 -0.0758429 -0.0690218 -0.0686782 -0.0758429 -0.0757724 -0.0748909 -0.0758429 -0.0821505 -0.0835447 -0.0758429 -0.0757724 -0.0835447 -0.0838656 -0.0686782 -0.0673054 -0.0757724 -0.074586 -0.0673054 -0.0648522 -0.074586 -0.0722023 -0.0757724 -0.074586 -0.0838656 -0.0829876 -0.074586 -0.0722023 -0.0829876 -0.0807894 -0.0529654 -0.0497248 -0.0585196 -0.0551016 -0.0497248 -0.0456625 -0.0551016 -0.0507428 -0.0585196 -0.0551016 -0.0648522 -0.0612951 -0.0551016 -0.0507428 -0.0612951 -0.0566524 -0.0456625 -0.0408639 -0.0507428 -0.0455262 -0.0408639 -0.0354609 -0.0455262 -0.0395915 -0.0507428 -0.0455262 -0.0566524 -0.0509991 -0.0455262 -0.0395915 -0.0509991 -0.0444796 -0.0648522 -0.0612951 -0.0722023 -0.0685668 -0.0612951 -0.0566524 -0.0685668 -0.0636705 -0.0722023 -0.0685668 -0.0807894 -0.0771727 -0.0685668 -0.0636705 -0.0771727 -0.0720864 -0.0566524 -0.0509991 -0.0636705 -0.0575708 -0.0509991 -0.0444796 -0.0575708 -0.0504105 -0.0636705 -0.0575708 -0.0720864 -0.0655553 -0.0575708 -0.0504105 -0.0655553 -0.0577084 -0.0821505 -0.0835447 -0.0902379 -0.0922021 -0.0835447 -0.0838656 -0.0922021 -0.0930613 -0.0902379 -0.0922021 -0.0991413 -0.101818 -0.0922021 -0.0930613 -0.101818 -0.103388 -0.0838656 -0.0829876 -0.0930613 -0.0926515 -0.0829876 -0.0807894 -0.0926515 -0.0908014 -0.0930613 -0.0926515 -0.103388 -0.103647 -0.0926515 -0.0908014 -0.103647 -0.102363 -0.0991413 -0.101818 -0.108756 -0.112288 -0.101818 -0.103388 -0.112288 -0.11476 -0.108756 -0.112288 -0.118846 -0.123357 -0.112288 -0.11476 -0.123357 -0.126909 -0.103388 -0.103647 -0.11476 -0.115922 -0.103647 -0.102363 -0.115922 -0.115475 -0.11476 -0.115922 -0.126909 -0.12922 -0.115922 -0.115475 -0.12922 -0.129922 -0.0807894 -0.0771727 -0.0908014 -0.0873531 -0.0771727 -0.0720864 -0.0873531 -0.0821931 -0.0908014 -0.0873531 -0.102363 -0.0992998 -0.0873531 -0.0821931 -0.0992998 -0.0942561 -0.0720864 -0.0655553 -0.0821931 -0.0752908 -0.0655553 -0.0577084 -0.0752908 -0.0667408 -0.0821931 -0.0752908 -0.0942561 -0.0871144 -0.0752908 -0.0667408 -0.0871144 -0.0779019 -0.102363 -0.0992998 -0.115475 -0.11309 -0.0992998 -0.0942561 -0.11309 -0.108446 -0.115475 -0.11309 -0.129922 -0.128577 -0.11309 -0.108446 -0.128577 -0.124717 -0.0942561 -0.0871144 -0.108446 -0.101297 -0.0871144 -0.0779019 -0.101297 -0