# vtk DataFile Version 3.0
#This file was generated by the deal.II library on 2026/1/5 at 14:19:32
ASCII
DATASET UNSTRUCTURED_GRID

POINTS 4096 double
0 0 0
0.03125 0 0
0 0.03125 0
0.03125 0.03125 0
0.03125 0 0
0.0625 0 0
0.03125 0.03125 0
0.0625 0.03125 0
0 0.03125 0
0.03125 0.03125 0
0 0.0625 0
0.03125 0.0625 0
0.03125 0.03125 0
0.0625 0.03125 0
0.03125 0.0625 0
0.0625 0.0625 0
0.0625 0 0
0.09375 0 0
0.0625 0.03125 0
0.09375 0.03125 0
0.09375 0 0
0.125 0 0
0.09375 0.03125 0
0.125 0.03125 0
0.0625 0.03125 0
0.09375 0.03125 0
0.0625 0.0625 0
0.09375 0.0625 0
0.09375 0.03125 0
0.125 0.03125 0
0.09375 0.0625 0
0.125 0.0625 0
0 0.0625 0
0.03125 0.0625 0
0 0.09375 0
0.03125 0.09375 0
0.03125 0.0625 0
0.0625 0.0625 0
0.03125 0.09375 0
0.0625 0.09375 0
0 0.09375 0
0.03125 0.09375 0
0 0.125 0
0.03125 0.125 0
0.03125 0.09375 0
0.0625 0.09375 0
0.03125 0.125 0
0.0625 0.125 0
0.0625 0.0625 0
0.09375 0.0625 0
0.0625 0.09375 0
0.09375 0.09375 0
0.09375 0.0625 0
0.125 0.0625 0
0.09375 0.09375 0
0.125 0.09375 0
0.0625 0.09375 0
0.09375 0.09375 0
0.0625 0.125 0
0.09375 0.125 0
0.09375 0.09375 0
0.125 0.09375 0
0.09375 0.125 0
0.125 0.125 0
0.125 0 0
0.15625 0 0
0.125 0.03125 0
0.15625 0.03125 0
0.15625 0 0
0.1875 0 0
0.15625 0.03125 0
0.1875 0.03125 0
0.125 0.03125 0
0.15625 0.03125 0
0.125 0.0625 0
0.15625 0.0625 0
0.15625 0.03125 0
0.1875 0.03125 0
0.15625 0.0625 0
0.1875 0.0625 0
0.1875 0 0
0.21875 0 0
0.1875 0.03125 0
0.21875 0.03125 0
0.21875 0 0
0.25 0 0
0.21875 0.03125 0
0.25 0.03125 0
0.1875 0.03125 0
0.21875 0.03125 0
0.1875 0.0625 0
0.21875 0.0625 0
0.21875 0.03125 0
0.25 0.03125 0
0.21875 0.0625 0
0.25 0.0625 0
0.125 0.0625 0
0.15625 0.0625 0
0.125 0.09375 0
0.15625 0.09375 0
0.15625 0.0625 0
0.1875 0.0625 0
0.15625 0.09375 0
0.1875 0.09375 0
0.125 0.09375 0
0.15625 0.09375 0
0.125 0.125 0
0.15625 0.125 0
0.15625 0.09375 0
0.1875 0.09375 0
0.15625 0.125 0
0.1875 0.125 0
0.1875 0.0625 0
0.21875 0.0625 0
0.1875 0.09375 0
0.21875 0.09375 0
0.21875 0.0625 0
0.25 0.0625 0
0.21875 0.09375 0
0.25 0.09375 0
0.1875 0.09375 0
0.21875 0.09375 0
0.1875 0.125 0
0.21875 0.125 0
0.21875 0.09375 0
0.25 0.09375 0
0.21875 0.125 0
0.25 0.125 0
0 0.125 0
0.03125 0.125 0
0 0.15625 0
0.03125 0.15625 0
0.03125 0.125 0
0.0625 0.125 0
0.03125 0.15625 0
0.0625 0.15625 0
0 0.15625 0
0.03125 0.15625 0
0 0.1875 0
0.03125 0.1875 0
0.03125 0.15625 0
0.0625 0.15625 0
0.03125 0.1875 0
0.0625 0.1875 0
0.0625 0.125 0
0.09375 0.125 0
0.0625 0.15625 0
0.09375 0.15625 0
0.09375 0.125 0
0.125 0.125 0
0.09375 0.15625 0
0.125 0.15625 0
0.0625 0.15625 0
0.09375 0.15625 0
0.0625 0.1875 0
0.09375 0.1875 0
0.09375 0.15625 0
0.125 0.15625 0
0.09375 0.1875 0
0.125 0.1875 0
0 0.1875 0
0.03125 0.1875 0
0 0.21875 0
0.03125 0.21875 0
0.03125 0.1875 0
0.0625 0.1875 0
0.03125 0.21875 0
0.0625 0.21875 0
0 0.21875 0
0.03125 0.21875 0
0 0.25 0
0.03125 0.25 0
0.03125 0.21875 0
0.0625 0.21875 0
0.03125 0.25 0
0.0625 0.25 0
0.0625 0.1875 0
0.09375 0.1875 0
0.0625 0.21875 0
0.09375 0.21875 0
0.09375 0.1875 0
0.125 0.1875 0
0.09375 0.21875 0
0.125 0.21875 0
0.0625 0.21875 0
0.09375 0.21875 0
0.0625 0.25 0
0.09375 0.25 0
0.09375 0.21875 0
0.125 0.21875 0
0.09375 0.25 0
0.125 0.25 0
0.125 0.125 0
0.15625 0.125 0
0.125 0.15625 0
0.15625 0.15625 0
0.15625 0.125 0
0.1875 0.125 0
0.15625 0.15625 0
0.1875 0.15625 0
0.125 0.15625 0
0.15625 0.15625 0
0.125 0.1875 0
0.15625 0.1875 0
0.15625 0.15625 0
0.1875 0.15625 0
0.15625 0.1875 0
0.1875 0.1875 0
0.1875 0.125 0
0.21875 0.125 0
0.1875 0.15625 0
0.21875 0.15625 0
0.21875 0.125 0
0.25 0.125 0
0.21875 0.15625 0
0.25 0.15625 0
0.1875 0.15625 0
0.21875 0.15625 0
0.1875 0.1875 0
0.21875 0.1875 0
0.21875 0.15625 0
0.25 0.15625 0
0.21875 0.1875 0
0.25 0.1875 0
0.125 0.1875 0
0.15625 0.1875 0
0.125 0.21875 0
0.15625 0.21875 0
0.15625 0.1875 0
0.1875 0.1875 0
0.15625 0.21875 0
0.1875 0.21875 0
0.125 0.21875 0
0.15625 0.21875 0
0.125 0.25 0
0.15625 0.25 0
0.15625 0.21875 0
0.1875 0.21875 0
0.15625 0.25 0
0.1875 0.25 0
0.1875 0.1875 0
0.21875 0.1875 0
0.1875 0.21875 0
0.21875 0.21875 0
0.21875 0.1875 0
0.25 0.1875 0
0.21875 0.21875 0
0.25 0.21875 0
0.1875 0.21875 0
0.21875 0.21875 0
0.1875 0.25 0
0.21875 0.25 0
0.21875 0.21875 0
0.25 0.21875 0
0.21875 0.25 0
0.25 0.25 0
0.25 0 0
0.28125 0 0
0.25 0.03125 0
0.28125 0.03125 0
0.28125 0 0
0.3125 0 0
0.28125 0.03125 0
0.3125 0.03125 0
0.25 0.03125 0
0.28125 0.03125 0
0.25 0.0625 0
0.28125 0.0625 0
0.28125 0.03125 0
0.3125 0.03125 0
0.28125 0.0625 0
0.3125 0.0625 0
0.3125 0 0
0.34375 0 0
0.3125 0.03125 0
0.34375 0.03125 0
0.34375 0 0
0.375 0 0
0.34375 0.03125 0
0.375 0.03125 0
0.3125 0.03125 0
0.34375 0.03125 0
0.3125 0.0625 0
0.34375 0.0625 0
0.34375 0.03125 0
0.375 0.03125 0
0.34375 0.0625 0
0.375 0.0625 0
0.25 0.0625 0
0.28125 0.0625 0
0.25 0.09375 0
0.28125 0.09375 0
0.28125 0.0625 0
0.3125 0.0625 0
0.28125 0.09375 0
0.3125 0.09375 0
0.25 0.09375 0
0.28125 0.09375 0
0.25 0.125 0
0.28125 0.125 0
0.28125 0.09375 0
0.3125 0.09375 0
0.28125 0.125 0
0.3125 0.125 0
0.3125 0.0625 0
0.34375 0.0625 0
0.3125 0.09375 0
0.34375 0.09375 0
0.34375 0.0625 0
0.375 0.0625 0
0.34375 0.09375 0
0.375 0.09375 0
0.3125 0.09375 0
0.34375 0.09375 0
0.3125 0.125 0
0.34375 0.125 0
0.34375 0.09375 0
0.375 0.09375 0
0.34375 0.125 0
0.375 0.125 0
0.375 0 0
0.40625 0 0
0.375 0.03125 0
0.40625 0.03125 0
0.40625 0 0
0.4375 0 0
0.40625 0.03125 0
0.4375 0.03125 0
0.375 0.03125 0
0.40625 0.03125 0
0.375 0.0625 0
0.40625 0.0625 0
0.40625 0.03125 0
0.4375 0.03125 0
0.40625 0.0625 0
0.4375 0.0625 0
0.4375 0 0
0.46875 0 0
0.4375 0.03125 0
0.46875 0.03125 0
0.46875 0 0
0.5 0 0
0.46875 0.03125 0
0.5 0.03125 0
0.4375 0.03125 0
0.46875 0.03125 0
0.4375 0.0625 0
0.46875 0.0625 0
0.46875 0.03125 0
0.5 0.03125 0
0.46875 0.0625 0
0.5 0.0625 0
0.375 0.0625 0
0.40625 0.0625 0
0.375 0.09375 0
0.40625 0.09375 0
0.40625 0.0625 0
0.4375 0.0625 0
0.40625 0.09375 0
0.4375 0.09375 0
0.375 0.09375 0
0.40625 0.09375 0
0.375 0.125 0
0.40625 0.125 0
0.40625 0.09375 0
0.4375 0.09375 0
0.40625 0.125 0
0.4375 0.125 0
0.4375 0.0625 0
0.46875 0.0625 0
0.4375 0.09375 0
0.46875 0.09375 0
0.46875 0.0625 0
0.5 0.0625 0
0.46875 0.09375 0
0.5 0.09375 0
0.4375 0.09375 0
0.46875 0.09375 0
0.4375 0.125 0
0.46875 0.125 0
0.46875 0.09375 0
0.5 0.09375 0
0.46875 0.125 0
0.5 0.125 0
0.25 0.125 0
0.28125 0.125 0
0.25 0.15625 0
0.28125 0.15625 0
0.28125 0.125 0
0.3125 0.125 0
0.28125 0.15625 0
0.3125 0.15625 0
0.25 0.15625 0
0.28125 0.15625 0
0.25 0.1875 0
0.28125 0.1875 0
0.28125 0.15625 0
0.3125 0.15625 0
0.28125 0.1875 0
0.3125 0.1875 0
0.3125 0.125 0
0.34375 0.125 0
0.3125 0.15625 0
0.34375 0.15625 0
0.34375 0.125 0
0.375 0.125 0
0.34375 0.15625 0
0.375 0.15625 0
0.3125 0.15625 0
0.34375 0.15625 0
0.3125 0.1875 0
0.34375 0.1875 0
0.34375 0.15625 0
0.375 0.15625 0
0.34375 0.1875 0
0.375 0.1875 0
0.25 0.1875 0
0.28125 0.1875 0
0.25 0.21875 0
0.28125 0.21875 0
0.28125 0.1875 0
0.3125 0.1875 0
0.28125 0.21875 0
0.3125 0.21875 0
0.25 0.21875 0
0.28125 0.21875 0
0.25 0.25 0
0.28125 0.25 0
0.28125 0.21875 0
0.3125 0.21875 0
0.28125 0.25 0
0.3125 0.25 0
0.3125 0.1875 0
0.34375 0.1875 0
0.3125 0.21875 0
0.34375 0.21875 0
0.34375 0.1875 0
0.375 0.1875 0
0.34375 0.21875 0
0.375 0.21875 0
0.3125 0.21875 0
0.34375 0.21875 0
0.3125 0.25 0
0.34375 0.25 0
0.34375 0.21875 0
0.375 0.21875 0
0.34375 0.25 0
0.375 0.25 0
0.375 0.125 0
0.40625 0.125 0
0.375 0.15625 0
0.40625 0.15625 0
0.40625 0.125 0
0.4375 0.125 0
0.40625 0.15625 0
0.4375 0.15625 0
0.375 0.15625 0
0.40625 0.15625 0
0.375 0.1875 0
0.40625 0.1875 0
0.40625 0.15625 0
0.4375 0.15625 0
0.40625 0.1875 0
0.4375 0.1875 0
0.4375 0.125 0
0.46875 0.125 0
0.4375 0.15625 0
0.46875 0.15625 0
0.46875 0.125 0
0.5 0.125 0
0.46875 0.15625 0
0.5 0.15625 0
0.4375 0.15625 0
0.46875 0.15625 0
0.4375 0.1875 0
0.46875 0.1875 0
0.46875 0.15625 0
0.5 0.15625 0
0.46875 0.1875 0
0.5 0.1875 0
0.375 0.1875 0
0.40625 0.1875 0
0.375 0.21875 0
0.40625 0.21875 0
0.40625 0.1875 0
0.4375 0.1875 0
0.40625 0.21875 0
0.4375 0.21875 0
0.375 0.21875 0
0.40625 0.21875 0
0.375 0.25 0
0.40625 0.25 0
0.40625 0.21875 0
0.4375 0.21875 0
0.40625 0.25 0
0.4375 0.25 0
0.4375 0.1875 0
0.46875 0.1875 0
0.4375 0.21875 0
0.46875 0.21875 0
0.46875 0.1875 0
0.5 0.1875 0
0.46875 0.21875 0
0.5 0.21875 0
0.4375 0.21875 0
0.46875 0.21875 0
0.4375 0.25 0
0.46875 0.25 0
0.46875 0.21875 0
0.5 0.21875 0
0.46875 0.25 0
0.5 0.25 0
0 0.25 0
0.03125 0.25 0
0 0.28125 0
0.03125 0.28125 0
0.03125 0.25 0
0.0625 0.25 0
0.03125 0.28125 0
0.0625 0.28125 0
0 0.28125 0
0.03125 0.28125 0
0 0.3125 0
0.03125 0.3125 0
0.03125 0.28125 0
0.0625 0.28125 0
0.03125 0.3125 0
0.0625 0.3125 0
0.0625 0.25 0
0.09375 0.25 0
0.0625 0.28125 0
0.09375 0.28125 0
0.09375 0.25 0
0.125 0.25 0
0.09375 0.28125 0
0.125 0.28125 0
0.0625 0.28125 0
0.09375 0.28125 0
0.0625 0.3125 0
0.09375 0.3125 0
0.09375 0.28125 0
0.125 0.28125 0
0.09375 0.3125 0
0.125 0.3125 0
0 0.3125 0
0.03125 0.3125 0
0 0.34375 0
0.03125 0.34375 0
0.03125 0.3125 0
0.0625 0.3125 0
0.03125 0.34375 0
0.0625 0.34375 0
0 0.34375 0
0.03125 0.34375 0
0 0.375 0
0.03125 0.375 0
0.03125 0.34375 0
0.0625 0.34375 0
0.03125 0.375 0
0.0625 0.375 0
0.0625 0.3125 0
0.09375 0.3125 0
0.0625 0.34375 0
0.09375 0.34375 0
0.09375 0.3125 0
0.125 0.3125 0
0.09375 0.34375 0
0.125 0.34375 0
0.0625 0.34375 0
0.09375 0.34375 0
0.0625 0.375 0
0.09375 0.375 0
0.09375 0.34375 0
0.125 0.34375 0
0.09375 0.375 0
0.125 0.375 0
0.125 0.25 0
0.15625 0.25 0
0.125 0.28125 0
0.15625 0.28125 0
0.15625 0.25 0
0.1875 0.25 0
0.15625 0.28125 0
0.1875 0.28125 0
0.125 0.28125 0
0.15625 0.28125 0
0.125 0.3125 0
0.15625 0.3125 0
0.15625 0.28125 0
0.1875 0.28125 0
0.15625 0.3125 0
0.1875 0.3125 0
0.1875 0.25 0
0.21875 0.25 0
0.1875 0.28125 0
0.21875 0.28125 0
0.21875 0.25 0
0.25 0.25 0
0.21875 0.28125 0
0.25 0.28125 0
0.1875 0.28125 0
0.21875 0.28125 0
0.1875 0.3125 0
0.21875 0.3125 0
0.21875 0.28125 0
0.25 0.28125 0
0.21875 0.3125 0
0.25 0.3125 0
0.125 0.3125 0
0.15625 0.3125 0
0.125 0.34375 0
0.15625 0.34375 0
0.15625 0.3125 0
0.1875 0.3125 0
0.15625 0.34375 0
0.1875 0.34375 0
0.125 0.34375 0
[...]
POINT_DATA 4096
SCALARS u_x double 1
LOOKUP_TABLE default
1.80118e-05 1.56109e-05 -3.46883e-05 -9.6825e-05 1.56109e-05 1.98416e-05 -9.6825e-05 -0.00051442 -3.46883e-05 -9.6825e-05 -0.000154796 -0.000279507 -9.6825e-05 -0.00051442 -0.000279507 -0.00112989 1.98416e-05 1.22519e-05 -0.00051442 -0.00121347 1.22519e-05 -5.64154e-07 -0.00121347 -0.00211528 -0.00051442 -0.00121347 -0.00112989 -0.0023873 -0.00121347 -0.00211528 -0.0023873 -0.00394731 -0.000154796 -0.000279507 -0.000256881 -0.000427405 -0.000279507 -0.00112989 -0.000427405 -0.00163681 -0.000256881 -0.000427405 -0.000296923 -0.000533252 -0.000427405 -0.00163681 -0.000533252 -0.00200342 -0.00112989 -0.0023873 -0.00163681 -0.00333356 -0.0023873 -0.00394731 -0.00333356 -0.00538277 -0.00163681 -0.00333356 -0.00200342 -0.00403357 -0.00333356 -0.00538277 -0.00403357 -0.00644797 -5.64154e-07 -1.4793e-05 -0.00211528 -0.0031227 -1.4793e-05 -2.87568e-05 -0.0031227 -0.00416271 -0.00211528 -0.0031227 -0.00394731 -0.00566868 -0.0031227 -0.00416271 -0.00566868 -0.00744218 -2.87568e-05 -4.18754e-05 -0.00416271 -0.00518523 -4.18754e-05 -5.39908e-05 -0.00518523 -0.00615795 -0.00416271 -0.00518523 -0.00744218 -0.00918744 -0.00518523 -0.00615795 -0.00918744 -0.0108497 -0.00394731 -0.00566868 -0.00538277 -0.00761483 -0.00566868 -0.00744218 -0.00761483 -0.00990256 -0.00538277 -0.00761483 -0.00644797 -0.00905294 -0.00761483 -0.00990256 -0.00905294 -0.0117086 -0.00744218 -0.00918744 -0.00990256 -0.0121499 -0.00918744 -0.0108497 -0.0121499 -0.0142893 -0.00990256 -0.0121499 -0.0117086 -0.0143103 -0.0121499 -0.0142893 -0.0143103 -0.0167836 -0.000296923 -0.000533252 -0.000257735 -0.00061356 -0.000533252 -0.00200342 -0.00061356 -0.00226196 -0.000257735 -0.00061356 -0.000133582 -0.000685668 -0.00061356 -0.00226196 -0.000685668 -0.00245751 -0.00200342 -0.00403357 -0.00226196 -0.00454646 -0.00403357 -0.00644797 -0.00454646 -0.00724107 -0.00226196 -0.00454646 -0.00245751 -0.00495053 -0.00454646 -0.00724107 -0.00495053 -0.00787681 -0.000133582 -0.000685668 7.76536e-05 -0.000762644 -0.000685668 -0.00245751 -0.000762644 -0.00262853 7.76536e-05 -0.000762644 0.000377896 -0.000853333 -0.000762644 -0.00262853 -0.000853333 -0.00280256 -0.00245751 -0.00495053 -0.00262853 -0.00531486 -0.00495053 -0.00787681 -0.00531486 -0.00845576 -0.00262853 -0.00531486 -0.00280256 -0.00569068 -0.00531486 -0.00845576 -0.00569068 -0.00905346 -0.00644797 -0.00905294 -0.00724107 -0.0101322 -0.00905294 -0.0117086 -0.0101322 -0.0130674 -0.00724107 -0.0101322 -0.00787681 -0.0110081 -0.0101322 -0.0130674 -0.0110081 -0.0141783 -0.0117086 -0.0143103 -0.0130674 -0.0159354 -0.0143103 -0.0167836 -0.0159354 -0.0186574 -0.0130674 -0.0159354 -0.0141783 -0.0172695 -0.0159354 -0.0186574 -0.0172695 -0.0201993 -0.00787681 -0.0110081 -0.00845576 -0.0118133 -0.0110081 -0.0141783 -0.0118133 -0.0152067 -0.00845576 -0.0118133 -0.00905346 -0.0126474 -0.0118133 -0.0152067 -0.0126474 -0.0162749 -0.0141783 -0.0172695 -0.0152067 -0.0185106 -0.0172695 -0.0201993 -0.0185106 -0.0216384 -0.0152067 -0.0185106 -0.0162749 -0.0198028 -0.0185106 -0.0216384 -0.0198028 -0.0231397 -5.39908e-05 -6.50864e-05 -0.00615795 -0.0070599 -6.50864e-05 -7.51554e-05 -0.0070599 -0.00787656 -0.00615795 -0.0070599 -0.0108497 -0.0123918 -0.0070599 -0.00787656 -0.0123918 -0.0137873 -7.51554e-05 -8.41604e-05 -0.00787656 -0.0085968 -8.41604e-05 -9.20297e-05 -0.0085968 -0.00921134 -0.00787656 -0.0085968 -0.0137873 -0.0150163 -0.0085968 -0.00921134 -0.0150163 -0.0160625 -0.0108497 -0.0123918 -0.0142893 -0.0162733 -0.0123918 -0.0137873 -0.0162733 -0.0180676 -0.0142893 -0.0162733 -0.0167836 -0.0190752 -0.0162733 -0.0180676 -0.0190752 -0.0211463 -0.0137873 -0.0150163 -0.0180676 -0.019646 -0.0150163 -0.0160625 -0.019646 -0.0209872 -0.0180676 -0.019646 -0.0211463 -0.0229667 -0.019646 -0.0209872 -0.0229667 -0.0245122 -9.20297e-05 -9.8667e-05 -0.00921134 -0.00971205 -9.8667e-05 -0.000103962 -0.00971205 -0.0100918 -0.00921134 -0.00971205 -0.0160625 -0.0169119 -0.00971205 -0.0100918 -0.0169119 -0.0175525 -0.000103962 -0.000107801 -0.0100918 -0.0103444 -0.000107801 -0.000110076 -0.0103444 -0.0104648 -0.0100918 -0.0103444 -0.0175525 -0.0179744 -0.0103444 -0.0104648 -0.0179744 -0.0181695 -0.0160625 -0.0169119 -0.0209872 -0.0220734 -0.0169119 -0.0175525 -0.0220734 -0.0228896 -0.0209872 -0.0220734 -0.0245122 -0.0257624 -0.0220734 -0.0228896 -0.0257624 -0.0267001 -0.0175525 -0.0179744 -0.0228896 -0.0234234 -0.0179744 -0.0181695 -0.0234234 -0.0236649 -0.0228896 -0.0234234 -0.0267001 -0.0273116 -0.0234234 -0.0236649 -0.0273116 -0.0275858 -0.0167836 -0.0190752 -0.0186574 -0.0211771 -0.0190752 -0.0211463 -0.0211771 -0.023453 -0.0186574 -0.0211771 -0.0201993 -0.022909 -0.0211771 -0.023453 -0.022909 -0.0253558 -0.0211463 -0.0229667 -0.023453 -0.0254528 -0.0229667 -0.0245122 -0.0254528 -0.0271502 -0.023453 -0.0254528 -0.0253558 -0.0275059 -0.0254528 -0.0271502 -0.0275059 -0.0293321 -0.0201993 -0.022909 -0.0216384 -0.0245296 -0.022909 -0.0253558 -0.0245296 -0.0271398 -0.0216384 -0.0245296 -0.0231397 -0.0262226 -0.0245296 -0.0271398 -0.0262226 -0.0290062 -0.0253558 -0.0275059 -0.0271398 -0.0294348 -0.0275059 -0.0293321 -0.0294348 -0.0313866 -0.0271398 -0.0294348 -0.0290062 -0.0314556 -0.0294348 -0.0313866 -0.0314556 -0.0335425 -0.0245122 -0.0257624 -0.0271502 -0.0285235 -0.0257624 -0.0267001 -0.0285235 -0.0295543 -0.0271502 -0.0285235 -0.0293321 -0.0308116 -0.0285235 -0.0295543 -0.0308116 -0.0319251 -0.0267001 -0.0273116 -0.0295543 -0.0302273 -0.0273116 -0.0275858 -0.0302273 -0.030531 -0.0295543 -0.0302273 -0.0319251 -0.0326566 -0.0302273 -0.030531 -0.0326566 -0.0329932 -0.0293321 -0.0308116 -0.0313866 -0.0329718 -0.0308116 -0.0319251 -0.0329718 -0.0341704 -0.0313866 -0.0329718 -0.0335425 -0.0352431 -0.0329718 -0.0341704 -0.0352431 -0.0365369 -0.0319251 -0.0326566 -0.0341704 -0.0349655 -0.0326566 -0.0329932 -0.0349655 -0.0353431 -0.0341704 -0.0349655 -0.0365369 -0.0374062 -0.0349655 -0.0353431 -0.0374062 -0.0378358 0.000377896 -0.000853333 0.000770367 -0.000963482 -0.000853333 -0.00280256 -0.000963482 -0.00299751 0.000770367 -0.000963482 0.00126011 -0.00109704 -0.000963482 -0.00299751 -0.00109704 -0.00322487 -0.00280256 -0.00569068 -0.00299751 -0.0061126 -0.00569068 -0.00905346 -0.0061126 -0.00972184 -0.00299751 -0.0061126 -0.00322487 -0.00660359 -0.0061126 -0.00972184 -0.00660359 -0.0104959 0.00126011 -0.00109704 0.00185409 -0.00125725 -0.00109704 -0.00322487 -0.00125725 -0.00349277 0.00185409 -0.00125725 0.00256123 -0.00144737 -0.00125725 -0.00349277 -0.00144737 -0.00380842 -0.00322487 -0.00660359 -0.00349277 -0.00718038 -0.00660359 -0.0104959 -0.00718038 -0.0114012 -0.00349277 -0.00718038 -0.00380842 -0.00785784 -0.00718038 -0.0114012 -0.00785784 -0.0124604 -0.00905346 -0.0126474 -0.00972184 -0.0135787 -0.0126474 -0.0162749 -0.0135787 -0.0174669 -0.00972184 -0.0135787 -0.0104959 -0.0146538 -0.0135787 -0.0174669 -0.0146538 -0.0188395 -0.0162749 -0.0198028 -0.0174669 -0.0212444 -0.0198028 -0.0231397 -0.0212444 -0.0248141 -0.0174669 -0.0212444 -0.0188395 -0.0229009 -0.0212444 -0.0248141 -0.0229009 -0.0267348 -0.0104959 -0.0146538 -0.0114012 -0.0159066 -0.0146538 -0.0188395 -0.0159066 -0.0204338 -0.0114012 -0.0159066 -0.0124604 -0.0173666 -0.0159066 -0.0204338 -0.0173666 -0.0222846 -0.0188395 -0.0229009 -0.0204338 -0.024819 -0.0229009 -0.0267348 -0.024819 -0.0289527 -0.0204338 -0.024819 -0.0222846 -0.0270376 -0.024819 -0.0289527 -0.0270376 -0.0315088 0.00256123 -0.00144737 0.00339248 -0.00167124 -0.00144737 -0.00380842 -0.00167124 -0.00417985 0.00339248 -0.00167124 0.00436102 -0.00193373 -0.00167124 -0.00417985 -0.00193373 -0.00461727 -0.00380842 -0.00785784 -0.00417985 -0.00865223 -0.00785784 -0.0124604 -0.00865223 -0.0136976 -0.00417985 -0.00865223 -0.00461727 -0.00958382 -0.00865223 -0.0136976 -0.00958382 -0.0151423 0.00436102 -0.00193373 0.00548257 -0.00224116 -0.00193373 -0.00461727 -0.00224116 -0.00513444 0.00548257 -0.00224116 0.00677585 -0.00260192 -0.00224116 -0.00513444 -0.00260192 -0.00575037 -0.00461727 -0.00958382 -0.00513444 -0.0106793 -0.00958382 -0.0151423 -0.0106793 -0.0168328 -0.00513444 -0.0106793 -0.00575037 -0.011975 -0.0106793 -0.0168328 -0.011975 -0.0188203 -0.0124604 -0.0173666 -0.0136976 -0.0190649 -0.0173666 -0.0222846 -0.0190649 -0.0244278 -0.0136976 -0.0190649 -0.0151423 -0.0210384 -0.0190649 -0.0244278 -0.0210384 -0.0269055 -0.0222846 -0.0270376 -0.0244278 -0.0295954 -0.0270376 -0.0315088 -0.0295954 -0.0344428 -0.0244278 -0.0295954 -0.0269055 -0.0325363 -0.0295954 -0.0344428 -0.0325363 -0.0377983 -0.0151423 -0.0210384 -0.0168328 -0.0233343 -0.0210384 -0.0269055 -0.0233343 -0.0297699 -0.0168328 -0.0233343 -0.0188203 -0.0260143 -0.0233343 -0.0297699 -0.0260143 -0.0330878 -0.0269055 -0.0325363 -0.0297699 -0.0359139 -0.0325363 -0.0377983 -0.0359139 -0.0416267 -0.0297699 -0.0359139 -0.0330878 -0.0397952 -0.0359139 -0.0416267 -0.0397952 -0.0459908 -0.0231397 -0.0262226 -0.0248141 -0.0281106 -0.0262226 -0.0290062 -0.0281106 -0.0310873 -0.0248141 -0.0281106 -0.0267348 -0.030273 -0.0281106 -0.0310873 -0.030273 -0.0334678 -0.0290062 -0.0314556 -0.0310873 -0.0337091 -0.0314556 -0.0335425 -0.0337091 -0.0359478 -0.0310873 -0.0337091 -0.0334678 -0.0362844 -0.0337091 -0.0359478 -0.0362844 -0.038695 -0.0267348 -0.030273 -0.0289527 -0.0327636 -0.030273 -0.0334678 -0.0327636 -0.0362038 -0.0289527 -0.0327636 -0.0315088 -0.0356246 -0.0327636 -0.0362038 -0.0356246 -0.0393372 -0.0334678 -0.0362844 -0.0362038 -0.039239 -0.0362844 -0.038695 -0.039239 -0.0418427 -0.0362038 -0.039239 -0.0393372 -0.0426143 -0.039239 -0.0418427 -0.0426143 -0.0454319 -0.0335425 -0.0352431 -0.0359478 -0.0377794 -0.0352431 -0.0365369 -0.0377794 -0.0391833 -0.0359478 -0.0377794 -0.038695 -0.0406762 -0.0377794 -0.0391833 -0.0406762 -0.0422073 -0.0365369 -0.0374062 -0.0391833 -0.0401408 -0.0374062 -0.0378358 -0.0401408 -0.0406354 -0.0391833 -0.0401408 -0.0422073 -0.0432693 -0.0401408 -0.0406354 -0.0432693 -0.0438442 -0.038695 -0.0406762 -0.0418427 -0.043993 -0.0406762 -0.0422073 -0.043993 -0.04567 -0.0418427 -0.043993 -0.0454319 -0.0477705 -0.043993 -0.04567 -0.0477705 -0.049612 -0.0422073 -0.0432693 -0.04567 -0.0468545 -0.0432693 -0.0438442 -0.0468545 -0.0475272 -0.04567 -0.0468545 -0.049612 -0.0509381 -0.0468545 -0.0475272 -0.0509381 -0.0517288 -0.0315088 -0.0356246 -0.0344428 -0.0388948 -0.0356246 -0.0393372 -0.0388948 -0.0429053 -0.0344428 -0.0388948 -0.0377983 -0.0426155 -0.0388948 -0.0429053 -0.0426155 -0.0469455 -0.0393372 -0.0426143 -0.0429053 -0.0464452 -0.0426143 -0.0454319 -0.0464452 -0.049495 -0.0429053 -0.0464452 -0.0469455 -0.0507649 -0.0464452 -0.049495 -0.0507649 -0.054061 -0.0377983 -0.0426155 -0.0416267 -0.0468337 -0.0426155 -0.0469455 -0.0468337 -0.0514987 -0.0416267 -0.0468337 -0.0459908 -0.0516045 -0.0468337 -0.0514987 -0.0516045 -0.0566107 -0.0469455 -0.0507649 -0.0514987 -0.0556075 -0.0507649 -0.054061 -0.0556075 -0.0591572 -0.0514987 -0.0556075 -0.0566107 -0.0610083 -0.0556075 -0.0591572 -0.0610083 -0.0648089 -0.0454319 -0.0477705 -0.049495 -0.0520392 -0.0477705 -0.049612 -0.0520392 -0.0540634 -0.049495 -0.0520392 -0.054061 -0.0568248 -0.0520392 -0.0540634 -0.0568248 -0.0590475 -0.049612 -0.0509381 -0.0540634 -0.0555511 -0.0509381 -0.0517288 -0.0555511 -0.0564824 -0.0540634 -0.0555511 -0.0590475 -0.0607167 -0.0555511 -0.0564824 -0.0607167 -0.0618137 -0.054061 -0.0568248 -0.0591572 -0.0621487 -0.0568248 -0.0590475 -0.0621487 -0.0645818 -0.0591572 -0.0621487 -0.0648089 -0.0680275 -0.0621487 -0.0645818 -0.0680275 -0.0706762 -0.0590475 -0.0607167 -0.0645818 -0.0664507 -0.0607167 -0.0618137 -0.0664507 -0.0677402 -0.0645818 -0.0664507 -0.0706762 -0.0727592 -0.0664507 -0.0677402 -0.0727592 -0.0742681 -0.000110076 -0.000110692 -0.0104648 -0.0104494 -0.000110692 -0.000109569 -0.0104494 -0.0102958 -0.0104648 -0.0104494 -0.0181695 -0.0181322 -0.0104494 -0.0102958 -0.0181322 -0.017859 -0.000109569 -0.000106649 -0.0102958 -0.0100033 -0.000106649 -0.000101896 -0.0100033 -0.00957306 -0.0102958 -0.0100033 -0.017859 -0.0173495 -0.0100033 -0.00957306 -0.0173495 -0.0166061 -0.0181695 -0.0181322 -0.0236649 -0.0236074 -0.0181322 -0.017859 -0.0236074 -0.0232471 -0.0236649 -0.0236074 -0.0275858 -0.0275152 -0.0236074 -0.0232471 -0.0275152 -0.0270956 -0.017859 -0.0173495 -0.0232471 -0.0225838 -0.0173495 -0.0166061 -0.0225838 -0.021621 -0.0232471 -0.0225838 -0.0270956 -0.0263269 -0.0225838 -0.021621 -0.0263269 -0.0252131 -0.000101896 -9.53006e-05 -0.00957306 -0.00900801 -9.53006e-05 -8.68768e-05 -0.00900801 -0.00831345 -0.00957306 -0.00900801 -0.0166061 -0.0156345 -0.00900801 -0.00831345 -0.0156345 -0.0144445 -8.68768e-05 -7.66535e-05 -0.00831345 -0.00749736 -7.66535e-05 -6.46827e-05 -0.00749736 -0.0065714 -0.00831345 -0.00749736 -0.0144445 -0.0130505 -0.00749736 -0.0065714 -0.0130505 -0.0114734 -0.0166061 -0.0156345 -0.021621 -0.0203666 -0.0156345 -0.0144445 -0.0203666 -0.0188334 -0.021621 -0.0203666 -0.0252131 -0.0237633 -0.0203666 -0.0188334 -0.0237633 -0.0219922 -0.0144445 -0.0130505 -0.0188334 -0.0170406 -0.0130505 -0.0114734 -0.0170406 -0.0150154 -0.0188334 -0.0170406 -0.0219922 -0.0199219 -0.0170406 -0.0150154 -0.0199219 -0.0175834 -0.0275858 -0.0275152 -0.030531 -0.0304567 -0.0275152 -0.0270956 -0.0304567 -0.0299997 -0.030531 -0.0304567 -0.0329932 -0.0329255 -0.0304567 -0.0299997 -0.0329255 -0.0324475 -0.0270956 -0.0263269 -0.0299997 -0.0291594 -0.0263269 -0.0252131 -0.0291594 -0.0279397 -0.0299997 -0.0291594 -0.0324475 -0.0315577 -0.0291594 -0.0279397 -0.0315577 -0.0302588 -0.0329932 -0.0329255 -0.0353431 -0.0352924 -0.0329255 -0.0324475 -0.0352924 -0.0348058 -0.0353431 -0.0352924 -0.0378358 -0.0378129 -0.0352924 -0.0348058 -0.0378129 -0.0373279 -0.0324475 -0.0315577 -0.0348058 -0.0338799 -0.0315577 -0.0302588 -0.0338799 -0.0325157 -0.0348058 -0.0338799 -0.0373279 -0.0363746 -0.0338799 -0.0325157 -0.0363746 -0.0349513 -0.0252131 -0.0237633 -0.0279397 -0.0263499 -0.0237633 -0.0219922 -0.0263499 -0.0244054 -0.0279397 -0.0263499 -0.0302588 -0.0285594 -0.0263499 -0.0244054 -0.0285594 -0.0264748 -0.0219922 -0.0199219 -0.0244054 -0.0221296 -0.0199219 -0.0175834 -0.0221296 -0.0195561 -0.0244054 -0.0221296 -0.0264748 -0.0240286 -0.0221296 -0.0195561 -0.0240286 -0.0212556 -0.0302588 -0.0285594 -0.0325157 -0.03072 -0.0285594 -0.0264748 -0.03072 -0.0285068 -0.0325157 -0.03072 -0.0349513 -0.033062 -0.03072 -0.0285068 -0.033062 -0.0307183 -0.0264748 -0.0240286 -0.0285068 -0.0258991 -0.0240286 -0.0212556 -0.0258991 -0.0229326 -0.0285068 -0.0258991 -0.0307183 -0.027942 -0.0258991 -0.0229326 -0.027942 -0.0247685 -6.46827e-05 -5.10363e-05 -0.0065714 -0.00555287 -5.10363e-05 -3.59697e-05 -0.00555287 -0.00446728 -0.0065714 -0.00555287 -0.0114734 -0.00974355 -0.00555287 -0.00446728 -0.00974355 -0.00790516 -3.59697e-05 -1.95044e-05 -0.00446728 -0.00335649 -1.95044e-05 -4.37006e-06 -0.00335649 -0.00226626 -0.00446728 -0.00335649 -0.00790516 -0.00602584 -0.00335649 -0.00226626 -0.00602584 -0.00418357 -0.0114734 -0.00974355 -0.0150154 -0.012797 -0.00974355 -0.00790516 -0.012797 -0.0104409 -0.0150154 -0.012797 -0.0175834 -0.0150214 -0.012797 -0.0104409 -0.0150214 -0.0122981 -0.00790516 -0.00602584 -0.0104409 -0.00802948 -0.00602584 -0.00418357 -0.00802948 -0.00565855 -0.0104409 -0.00802948 -0.0122981 -0.00950427 -0.00802948 -0.00565855 -0.00950427 -0.00674664 -4.37006e-06 1.00208e-05 -0.00226626 -0.00134626 1.00208e-05 5.97548e-05 -0.00134626 -0.000303743 -0.00226626 -0.00134626 -0.00418357 -0.00257932 -0.00134626 -0.000303743 -0.00257932 -0.000920555 5.97548e-05 -1.95579e-05 -0.000303743 -0.00128452 -1.95579e-05 0.0100745 -0.00128452 0.00894628 -0.000303743 -0.00128452 -0.000920555 -0.00153228 -0.00128452 0.00894628 -0.00153228 0.009351 -0.00418357 -0.00257932 -0.00565855 -0.00355065 -0.00257932 -0.000920555 -0.00355065 -0.00143588 -0.00565855 -0.00355065 -0.00674664 -0.00426229 -0.00355065 -0.00143588 -0.00426229 -0.00180712 -0.000920555 -0.00153228 -0.00143588 -0.00170976 -0.00153228 0.009351 -0.00170976 0.00921928 -0.00143588 -0.00170976 -0.00180712 -0.00181627 -0.00170976 0.00921928 -0.00181627 0.00916932 -0.0175834 -0.0150214 -0.0195561 -0.0167325 -0.0150214 -0.0122981 -0.0167325 -0.0137258 -0.0195561 -0.0167325 -0.0212556 -0.0182059 -0.0167325 -0.0137258 -0.0182059 -0.0149507 -0.0122981 -0.00950427 -0.0137258 -0.010633 -0.00950427 -0.00674664 -0.010633 -0.0075703 -0.0137258 -0.010633 -0.0149507 -0.0115938 -0.010633 -0.0075703 -0.0115938 -0.00826146 -0.0212556 -0.0182059 -0.0229326 -0.0196595 -0.0182059 -0.0149507 -0.0196595 -0.0161559 -0.0229326 -0.0196595 -0.0247685 -0.021253 -0.0196595 -0.0161559 -0.021253 -0.017477 -0.0149507 -0.0115938 -0.0161559 -0.0125337 -0.0115938 -0.00826146 -0.0125337 -0.00893165 -0.0161559 -0.0125337 -0.017477 -0.0135628 -0.0125337 -0.00893165 -0.0135628 -0.00966405 -0.00674664 -0.00426229 -0.0075703 -0.00478971 -0.00426229 -0.00180712 -0.00478971 -0.00206909 -0.0075703 -0.00478971 -0.00826146 -0.00522348 -0.00478971 -0.00206909 -0.00522348 -0.00227591 -0.00180712 -0.00181627 -0.00206909 -0.00189469 -0.00181627 0.00916932 -0.00189469 0.00920761 -0.00206909 -0.00189469 -0.00227591 -0.00196796 -0.00189469 0.00920761 -0.00196796 0.00932532 -0.00826146 -0.00522348 -0.00893165 -0.00564003 -0.00522348 -0.00227591 -0.00564003 -0.00246972 -0.00893165 -0.00564003 -0.00966405 -0.00609519 -0.00564003 -0.00246972 -0.00609519 -0.00268006 -0.00227591 -0.00196796 -0.00246972 -0.00204885 -0.00196796 0.00932532 -0.00204885 0.00952533 -0.00246972 -0.00204885 -0.00268006 -0.00214656 -0.00204885 0.00952533 -0.00214656 0.00980806 -0.0378358 -0.0378129 -0.0406354 -0.0406523 -0.0378129 -0.0373279 -0.0406523 -0.0401789 -0.0406354 -0.0406523 -0.0438442 -0.0439148 -0.0406523 -0.0401789 -0.0439148 -0.0434649 -0.0373279 -0.0363746 -0.0401789 -0.0392055 -0.0363746 -0.0349513 -0.0392055 -0.0377264 -0.0401789 -0.0392055 -0.0434649 -0.0424802 -0.0392055 -0.0377264 -0.0424802 -0.0409495 -0.0438442 -0.0439148 -0.0475272 -0.0476684 -0.0439148 -0.0434649 -0.0476684 -0.0472575 -0.0475272 -0.0476684 -0.0517288 -0.0519614 -0.0476684 -0.0472575 -0.0519614 -0.0516105 -0.0434649 -0.0424802 -0.0472575 -0.0462744 -0.0424802 -0.0409495 -0.0462744 -0.0447007 -0.0472575 -0.0462744 -0.0516105 -0.0506486 -0.0462744 -0.0447007 -0.0506486 -0.0490478 -0.0349513 -0.033062 -0.0377264 -0.0357415 -0.033062 -0.0307183 -0.0357415 -0.0332588 -0.0377264 -0.0357415 -0.0409495 -0.038867 -0.0357415 -0.0332588 -0.038867 -0.0362352 -0.0307183 -0.027942 -0.0332588 -0.0302974 -0.027942 -0.0247685 -0.0302974 -0.0268923 -0.0332588 -0.0302974 -0.0362352 -0.0330688 -0.0302974 -0.0268923 -0.0330688 -0.0294013 -0.0409495 -0.038867 -0.0447007 -0.0425224 -0.038867 -0.0362352 -0.0425224 -0.0397339 -0.0447007 -0.0425224 -0.0490478 -0.0467832 -0.0425224 -0.0397339 -0.0467832 -0.0438373 -0.0362352 -0.0330688 -0.0397339 -0.0363434 -0.0330688 -0.0294013 -0.0363434 -0.0323805 -0.0397339 -0.0363434 -0.0438373 -0.040208 -0.0363434 -0.0323805 -0.040208 -0.0359179 -0.0517288 -0.0519614 -0.0564824 -0.0568321 -0.0519614 -0.0516105 -0.0568321 -0.0565692 -0.0564824 -0.0568321 -0.0618137 -0.0623115 -0.0568321 -0.0565692 -0.0623115 -0.0621735 -0.0516105 -0.0506486 -0.0565692 -0.0556574 -0.0506486 -0.0490478 -0.0556574 -0.0540566 -0.0565692 -0.0556574 -0.0621735 -0.0613528 -0.0556574 -0.0540566 -0.0613528 -0.0597943 -0.0618137 -0.0623115 -0.0677402 -0.0684229 -0.0623115 -0.0621735 -0.0684229 -0.0684567 -0.0677402 -0.0684229 -0.0742681 -0.0751775 -0.0684229 -0.0684567 -0.0751775 -0.0754412 -0.0621735 -0.0613528 -0.0684567 -0.0677833 -0.0613528 -0.0597943 -0.0677833 -0.0663295 -0.0684567 -0.0677833 -0.0754412 -0.0749896 -0.0677833 -0.0663295 -0.0749896 -0.0737286 -0.0490478 -0.0467832 -0.0540566 -0.0517269 -0.0467832 -0.0438373 -0.0517269 -0.0486345 -0.0540566 -0.0517269 -0.0597943 -0.0574382 -0.0517269 -0.0486345 -0.0574382 -0.0542277 -0.0438373 -0.040208 -0.0486345 -0.044761 -0.040208 -0.0359179 -0.044761 -0.0401169 -0.0486345 -0.044761 -0.0542277 -0.0501204 -0.044761 -0.0401169 -0.0501204 -0.0451064 -0.0597943 -0.0574382 -0.0663295 -0.0640101 -0.0574382 -0.0542277 -0.0640101 -0.0607363 -0.06632