# vtk DataFile Version 3.0
#This file was generated by the deal.II library on 2026/1/5 at 14:19:29
ASCII
DATASET UNSTRUCTURED_GRID

POINTS 4096 double
0 0 0
0.03125 0 0
0 0.03125 0
0.03125 0.03125 0
0.03125 0 0
0.0625 0 0
0.03125 0.03125 0
0.0625 0.03125 0
0 0.03125 0
0.03125 0.03125 0
0 0.0625 0
0.03125 0.0625 0
0.03125 0.03125 0
0.0625 0.03125 0
0.03125 0.0625 0
0.0625 0.0625 0
0.0625 0 0
0.09375 0 0
0.0625 0.03125 0
0.09375 0.03125 0
0.09375 0 0
0.125 0 0
0.09375 0.03125 0
0.125 0.03125 0
0.0625 0.03125 0
0.09375 0.03125 0
0.0625 0.0625 0
0.09375 0.0625 0
0.09375 0.03125 0
0.125 0.03125 0
0.09375 0.0625 0
0.125 0.0625 0
0 0.0625 0
0.03125 0.0625 0
0 0.09375 0
0.03125 0.09375 0
0.03125 0.0625 0
0.0625 0.0625 0
0.03125 0.09375 0
0.0625 0.09375 0
0 0.09375 0
0.03125 0.09375 0
0 0.125 0
0.03125 0.125 0
0.03125 0.09375 0
0.0625 0.09375 0
0.03125 0.125 0
0.0625 0.125 0
0.0625 0.0625 0
0.09375 0.0625 0
0.0625 0.09375 0
0.09375 0.09375 0
0.09375 0.0625 0
0.125 0.0625 0
0.09375 0.09375 0
0.125 0.09375 0
0.0625 0.09375 0
0.09375 0.09375 0
0.0625 0.125 0
0.09375 0.125 0
0.09375 0.09375 0
0.125 0.09375 0
0.09375 0.125 0
0.125 0.125 0
0.125 0 0
0.15625 0 0
0.125 0.03125 0
0.15625 0.03125 0
0.15625 0 0
0.1875 0 0
0.15625 0.03125 0
0.1875 0.03125 0
0.125 0.03125 0
0.15625 0.03125 0
0.125 0.0625 0
0.15625 0.0625 0
0.15625 0.03125 0
0.1875 0.03125 0
0.15625 0.0625 0
0.1875 0.0625 0
0.1875 0 0
0.21875 0 0
0.1875 0.03125 0
0.21875 0.03125 0
0.21875 0 0
0.25 0 0
0.21875 0.03125 0
0.25 0.03125 0
0.1875 0.03125 0
0.21875 0.03125 0
0.1875 0.0625 0
0.21875 0.0625 0
0.21875 0.03125 0
0.25 0.03125 0
0.21875 0.0625 0
0.25 0.0625 0
0.125 0.0625 0
0.15625 0.0625 0
0.125 0.09375 0
0.15625 0.09375 0
0.15625 0.0625 0
0.1875 0.0625 0
0.15625 0.09375 0
0.1875 0.09375 0
0.125 0.09375 0
0.15625 0.09375 0
0.125 0.125 0
0.15625 0.125 0
0.15625 0.09375 0
0.1875 0.09375 0
0.15625 0.125 0
0.1875 0.125 0
0.1875 0.0625 0
0.21875 0.0625 0
0.1875 0.09375 0
0.21875 0.09375 0
0.21875 0.0625 0
0.25 0.0625 0
0.21875 0.09375 0
0.25 0.09375 0
0.1875 0.09375 0
0.21875 0.09375 0
0.1875 0.125 0
0.21875 0.125 0
0.21875 0.09375 0
0.25 0.09375 0
0.21875 0.125 0
0.25 0.125 0
0 0.125 0
0.03125 0.125 0
0 0.15625 0
0.03125 0.15625 0
0.03125 0.125 0
0.0625 0.125 0
0.03125 0.15625 0
0.0625 0.15625 0
0 0.15625 0
0.03125 0.15625 0
0 0.1875 0
0.03125 0.1875 0
0.03125 0.15625 0
0.0625 0.15625 0
0.03125 0.1875 0
0.0625 0.1875 0
0.0625 0.125 0
0.09375 0.125 0
0.0625 0.15625 0
0.09375 0.15625 0
0.09375 0.125 0
0.125 0.125 0
0.09375 0.15625 0
0.125 0.15625 0
0.0625 0.15625 0
0.09375 0.15625 0
0.0625 0.1875 0
0.09375 0.1875 0
0.09375 0.15625 0
0.125 0.15625 0
0.09375 0.1875 0
0.125 0.1875 0
0 0.1875 0
0.03125 0.1875 0
0 0.21875 0
0.03125 0.21875 0
0.03125 0.1875 0
0.0625 0.1875 0
0.03125 0.21875 0
0.0625 0.21875 0
0 0.21875 0
0.03125 0.21875 0
0 0.25 0
0.03125 0.25 0
0.03125 0.21875 0
0.0625 0.21875 0
0.03125 0.25 0
0.0625 0.25 0
0.0625 0.1875 0
0.09375 0.1875 0
0.0625 0.21875 0
0.09375 0.21875 0
0.09375 0.1875 0
0.125 0.1875 0
0.09375 0.21875 0
0.125 0.21875 0
0.0625 0.21875 0
0.09375 0.21875 0
0.0625 0.25 0
0.09375 0.25 0
0.09375 0.21875 0
0.125 0.21875 0
0.09375 0.25 0
0.125 0.25 0
0.125 0.125 0
0.15625 0.125 0
0.125 0.15625 0
0.15625 0.15625 0
0.15625 0.125 0
0.1875 0.125 0
0.15625 0.15625 0
0.1875 0.15625 0
0.125 0.15625 0
0.15625 0.15625 0
0.125 0.1875 0
0.15625 0.1875 0
0.15625 0.15625 0
0.1875 0.15625 0
0.15625 0.1875 0
0.1875 0.1875 0
0.1875 0.125 0
0.21875 0.125 0
0.1875 0.15625 0
0.21875 0.15625 0
0.21875 0.125 0
0.25 0.125 0
0.21875 0.15625 0
0.25 0.15625 0
0.1875 0.15625 0
0.21875 0.15625 0
0.1875 0.1875 0
0.21875 0.1875 0
0.21875 0.15625 0
0.25 0.15625 0
0.21875 0.1875 0
0.25 0.1875 0
0.125 0.1875 0
0.15625 0.1875 0
0.125 0.21875 0
0.15625 0.21875 0
0.15625 0.1875 0
0.1875 0.1875 0
0.15625 0.21875 0
0.1875 0.21875 0
0.125 0.21875 0
0.15625 0.21875 0
0.125 0.25 0
0.15625 0.25 0
0.15625 0.21875 0
0.1875 0.21875 0
0.15625 0.25 0
0.1875 0.25 0
0.1875 0.1875 0
0.21875 0.1875 0
0.1875 0.21875 0
0.21875 0.21875 0
0.21875 0.1875 0
0.25 0.1875 0
0.21875 0.21875 0
0.25 0.21875 0
0.1875 0.21875 0
0.21875 0.21875 0
0.1875 0.25 0
0.21875 0.25 0
0.21875 0.21875 0
0.25 0.21875 0
0.21875 0.25 0
0.25 0.25 0
0.25 0 0
0.28125 0 0
0.25 0.03125 0
0.28125 0.03125 0
0.28125 0 0
0.3125 0 0
0.28125 0.03125 0
0.3125 0.03125 0
0.25 0.03125 0
0.28125 0.03125 0
0.25 0.0625 0
0.28125 0.0625 0
0.28125 0.03125 0
0.3125 0.03125 0
0.28125 0.0625 0
0.3125 0.0625 0
0.3125 0 0
0.34375 0 0
0.3125 0.03125 0
0.34375 0.03125 0
0.34375 0 0
0.375 0 0
0.34375 0.03125 0
0.375 0.03125 0
0.3125 0.03125 0
0.34375 0.03125 0
0.3125 0.0625 0
0.34375 0.0625 0
0.34375 0.03125 0
0.375 0.03125 0
0.34375 0.0625 0
0.375 0.0625 0
0.25 0.0625 0
0.28125 0.0625 0
0.25 0.09375 0
0.28125 0.09375 0
0.28125 0.0625 0
0.3125 0.0625 0
0.28125 0.09375 0
0.3125 0.09375 0
0.25 0.09375 0
0.28125 0.09375 0
0.25 0.125 0
0.28125 0.125 0
0.28125 0.09375 0
0.3125 0.09375 0
0.28125 0.125 0
0.3125 0.125 0
0.3125 0.0625 0
0.34375 0.0625 0
0.3125 0.09375 0
0.34375 0.09375 0
0.34375 0.0625 0
0.375 0.0625 0
0.34375 0.09375 0
0.375 0.09375 0
0.3125 0.09375 0
0.34375 0.09375 0
0.3125 0.125 0
0.34375 0.125 0
0.34375 0.09375 0
0.375 0.09375 0
0.34375 0.125 0
0.375 0.125 0
0.375 0 0
0.40625 0 0
0.375 0.03125 0
0.40625 0.03125 0
0.40625 0 0
0.4375 0 0
0.40625 0.03125 0
0.4375 0.03125 0
0.375 0.03125 0
0.40625 0.03125 0
0.375 0.0625 0
0.40625 0.0625 0
0.40625 0.03125 0
0.4375 0.03125 0
0.40625 0.0625 0
0.4375 0.0625 0
0.4375 0 0
0.46875 0 0
0.4375 0.03125 0
0.46875 0.03125 0
0.46875 0 0
0.5 0 0
0.46875 0.03125 0
0.5 0.03125 0
0.4375 0.03125 0
0.46875 0.03125 0
0.4375 0.0625 0
0.46875 0.0625 0
0.46875 0.03125 0
0.5 0.03125 0
0.46875 0.0625 0
0.5 0.0625 0
0.375 0.0625 0
0.40625 0.0625 0
0.375 0.09375 0
0.40625 0.09375 0
0.40625 0.0625 0
0.4375 0.0625 0
0.40625 0.09375 0
0.4375 0.09375 0
0.375 0.09375 0
0.40625 0.09375 0
0.375 0.125 0
0.40625 0.125 0
0.40625 0.09375 0
0.4375 0.09375 0
0.40625 0.125 0
0.4375 0.125 0
0.4375 0.0625 0
0.46875 0.0625 0
0.4375 0.09375 0
0.46875 0.09375 0
0.46875 0.0625 0
0.5 0.0625 0
0.46875 0.09375 0
0.5 0.09375 0
0.4375 0.09375 0
0.46875 0.09375 0
0.4375 0.125 0
0.46875 0.125 0
0.46875 0.09375 0
0.5 0.09375 0
0.46875 0.125 0
0.5 0.125 0
0.25 0.125 0
0.28125 0.125 0
0.25 0.15625 0
0.28125 0.15625 0
0.28125 0.125 0
0.3125 0.125 0
0.28125 0.15625 0
0.3125 0.15625 0
0.25 0.15625 0
0.28125 0.15625 0
0.25 0.1875 0
0.28125 0.1875 0
0.28125 0.15625 0
0.3125 0.15625 0
0.28125 0.1875 0
0.3125 0.1875 0
0.3125 0.125 0
0.34375 0.125 0
0.3125 0.15625 0
0.34375 0.15625 0
0.34375 0.125 0
0.375 0.125 0
0.34375 0.15625 0
0.375 0.15625 0
0.3125 0.15625 0
0.34375 0.15625 0
0.3125 0.1875 0
0.34375 0.1875 0
0.34375 0.15625 0
0.375 0.15625 0
0.34375 0.1875 0
0.375 0.1875 0
0.25 0.1875 0
0.28125 0.1875 0
0.25 0.21875 0
0.28125 0.21875 0
0.28125 0.1875 0
0.3125 0.1875 0
0.28125 0.21875 0
0.3125 0.21875 0
0.25 0.21875 0
0.28125 0.21875 0
0.25 0.25 0
0.28125 0.25 0
0.28125 0.21875 0
0.3125 0.21875 0
0.28125 0.25 0
0.3125 0.25 0
0.3125 0.1875 0
0.34375 0.1875 0
0.3125 0.21875 0
0.34375 0.21875 0
0.34375 0.1875 0
0.375 0.1875 0
0.34375 0.21875 0
0.375 0.21875 0
0.3125 0.21875 0
0.34375 0.21875 0
0.3125 0.25 0
0.34375 0.25 0
0.34375 0.21875 0
0.375 0.21875 0
0.34375 0.25 0
0.375 0.25 0
0.375 0.125 0
0.40625 0.125 0
0.375 0.15625 0
0.40625 0.15625 0
0.40625 0.125 0
0.4375 0.125 0
0.40625 0.15625 0
0.4375 0.15625 0
0.375 0.15625 0
0.40625 0.15625 0
0.375 0.1875 0
0.40625 0.1875 0
0.40625 0.15625 0
0.4375 0.15625 0
0.40625 0.1875 0
0.4375 0.1875 0
0.4375 0.125 0
0.46875 0.125 0
0.4375 0.15625 0
0.46875 0.15625 0
0.46875 0.125 0
0.5 0.125 0
0.46875 0.15625 0
0.5 0.15625 0
0.4375 0.15625 0
0.46875 0.15625 0
0.4375 0.1875 0
0.46875 0.1875 0
0.46875 0.15625 0
0.5 0.15625 0
0.46875 0.1875 0
0.5 0.1875 0
0.375 0.1875 0
0.40625 0.1875 0
0.375 0.21875 0
0.40625 0.21875 0
0.40625 0.1875 0
0.4375 0.1875 0
0.40625 0.21875 0
0.4375 0.21875 0
0.375 0.21875 0
0.40625 0.21875 0
0.375 0.25 0
0.40625 0.25 0
0.40625 0.21875 0
0.4375 0.21875 0
0.40625 0.25 0
0.4375 0.25 0
0.4375 0.1875 0
0.46875 0.1875 0
0.4375 0.21875 0
0.46875 0.21875 0
0.46875 0.1875 0
0.5 0.1875 0
0.46875 0.21875 0
0.5 0.21875 0
0.4375 0.21875 0
0.46875 0.21875 0
0.4375 0.25 0
0.46875 0.25 0
0.46875 0.21875 0
0.5 0.21875 0
0.46875 0.25 0
0.5 0.25 0
0 0.25 0
0.03125 0.25 0
0 0.28125 0
0.03125 0.28125 0
0.03125 0.25 0
0.0625 0.25 0
0.03125 0.28125 0
0.0625 0.28125 0
0 0.28125 0
0.03125 0.28125 0
0 0.3125 0
0.03125 0.3125 0
0.03125 0.28125 0
0.0625 0.28125 0
0.03125 0.3125 0
0.0625 0.3125 0
0.0625 0.25 0
0.09375 0.25 0
0.0625 0.28125 0
0.09375 0.28125 0
0.09375 0.25 0
0.125 0.25 0
0.09375 0.28125 0
0.125 0.28125 0
0.0625 0.28125 0
0.09375 0.28125 0
0.0625 0.3125 0
0.09375 0.3125 0
0.09375 0.28125 0
0.125 0.28125 0
0.09375 0.3125 0
0.125 0.3125 0
0 0.3125 0
0.03125 0.3125 0
0 0.34375 0
0.03125 0.34375 0
0.03125 0.3125 0
0.0625 0.3125 0
0.03125 0.34375 0
0.0625 0.34375 0
0 0.34375 0
0.03125 0.34375 0
0 0.375 0
0.03125 0.375 0
0.03125 0.34375 0
0.0625 0.34375 0
0.03125 0.375 0
0.0625 0.375 0
0.0625 0.3125 0
0.09375 0.3125 0
0.0625 0.34375 0
0.09375 0.34375 0
0.09375 0.3125 0
0.125 0.3125 0
0.09375 0.34375 0
0.125 0.34375 0
0.0625 0.34375 0
0.09375 0.34375 0
0.0625 0.375 0
0.09375 0.375 0
0.09375 0.34375 0
0.125 0.34375 0
0.09375 0.375 0
0.125 0.375 0
0.125 0.25 0
0.15625 0.25 0
0.125 0.28125 0
0.15625 0.28125 0
0.15625 0.25 0
0.1875 0.25 0
0.15625 0.28125 0
0.1875 0.28125 0
0.125 0.28125 0
0.15625 0.28125 0
0.125 0.3125 0
0.15625 0.3125 0
0.15625 0.28125 0
0.1875 0.28125 0
0.15625 0.3125 0
0.1875 0.3125 0
0.1875 0.25 0
0.21875 0.25 0
0.1875 0.28125 0
0.21875 0.28125 0
0.21875 0.25 0
0.25 0.25 0
0.21875 0.28125 0
0.25 0.28125 0
0.1875 0.28125 0
0.21875 0.28125 0
0.1875 0.3125 0
0.21875 0.3125 0
0.21875 0.28125 0
0.25 0.28125 0
0.21875 0.3125 0
0.25 0.3125 0
0.125 0.3125 0
0.15625 0.3125 0
0.125 0.34375 0
0.15625 0.34375 0
0.15625 0.3125 0
0.1875 0.3125 0
0.15625 0.34375 0
0.1875 0.34375 0
0.125 0.34375 0
[...]
POINT_DATA 4096
SCALARS u_x double 1
LOOKUP_TABLE default
1.19038e-05 9.84942e-06 -5.95696e-05 -0.000250809 9.84942e-06 -4.00711e-06 -0.000250809 -0.000841344 -5.95696e-05 -0.000250809 -0.000100569 -0.000411397 -0.000250809 -0.000841344 -0.000411397 -0.00129234 -4.00711e-06 -2.78915e-05 -0.000841344 -0.00157971 -2.78915e-05 -5.1248e-05 -0.00157971 -0.00234873 -0.000841344 -0.00157971 -0.00129234 -0.00235685 -0.00157971 -0.00234873 -0.00235685 -0.00345781 -0.000100569 -0.000411397 -9.35339e-06 -0.000483292 -0.000411397 -0.00129234 -0.000483292 -0.00146311 -9.35339e-06 -0.000483292 0.000221576 -0.00053824 -0.000483292 -0.00146311 -0.00053824 -0.00153035 -0.00129234 -0.00235685 -0.00146311 -0.002661 -0.00235685 -0.00345781 -0.002661 -0.00388673 -0.00146311 -0.002661 -0.00153035 -0.00280022 -0.002661 -0.00388673 -0.00280022 -0.00408546 -5.1248e-05 -7.31583e-05 -0.00234873 -0.00309978 -7.31583e-05 -9.37996e-05 -0.00309978 -0.00381652 -0.00234873 -0.00309978 -0.00345781 -0.00453469 -0.00309978 -0.00381652 -0.00453469 -0.00556335 -9.37996e-05 -0.000113205 -0.00381652 -0.00449032 -0.000113205 -0.000131235 -0.00449032 -0.00511409 -0.00381652 -0.00449032 -0.00556335 -0.00653041 -0.00449032 -0.00511409 -0.00653041 -0.00742526 -0.00345781 -0.00453469 -0.00388673 -0.00508473 -0.00453469 -0.00556335 -0.00508473 -0.00622858 -0.00388673 -0.00508473 -0.00408546 -0.00534165 -0.00508473 -0.00622858 -0.00534165 -0.00653975 -0.00556335 -0.00653041 -0.00622858 -0.00730376 -0.00653041 -0.00742526 -0.00730376 -0.0082983 -0.00622858 -0.00730376 -0.00653975 -0.00766544 -0.00730376 -0.0082983 -0.00766544 -0.00870621 0.000221576 -0.00053824 0.000590225 -0.00060896 -0.00053824 -0.00153035 -0.00060896 -0.00158188 0.000590225 -0.00060896 0.00109821 -0.000704008 -0.00060896 -0.00158188 -0.000704008 -0.00164316 -0.00153035 -0.00280022 -0.00158188 -0.00292068 -0.00280022 -0.00408546 -0.00292068 -0.00425864 -0.00158188 -0.00292068 -0.00164316 -0.0030661 -0.00292068 -0.00425864 -0.0030661 -0.00446665 0.00109821 -0.000704008 0.00175089 -0.0008255 -0.000704008 -0.00164316 -0.0008255 -0.00171964 0.00175089 -0.0008255 0.00255612 -0.000974961 -0.0008255 -0.00171964 -0.000974961 -0.00181304 -0.00164316 -0.0030661 -0.00171964 -0.00324713 -0.0030661 -0.00446665 -0.00324713 -0.00472454 -0.00171964 -0.00324713 -0.00181304 -0.00346778 -0.00324713 -0.00472454 -0.00346778 -0.00503813 -0.00408546 -0.00534165 -0.00425864 -0.00556808 -0.00534165 -0.00653975 -0.00556808 -0.00681536 -0.00425864 -0.00556808 -0.00446665 -0.0058403 -0.00556808 -0.00681536 -0.0058403 -0.00714689 -0.00653975 -0.00766544 -0.00681536 -0.00798654 -0.00766544 -0.00870621 -0.00798654 -0.00906863 -0.00681536 -0.00798654 -0.00714689 -0.0083728 -0.00798654 -0.00906863 -0.0083728 -0.00950441 -0.00446665 -0.0058403 -0.00472454 -0.00617723 -0.0058403 -0.00714689 -0.00617723 -0.00755678 -0.00472454 -0.00617723 -0.00503813 -0.00658623 -0.00617723 -0.00755678 -0.00658623 -0.00805357 -0.00714689 -0.0083728 -0.00755678 -0.00884986 -0.0083728 -0.00950441 -0.00884986 -0.010042 -0.00755678 -0.00884986 -0.00805357 -0.0094272 -0.00884986 -0.010042 -0.0094272 -0.0106917 -0.000131235 -0.000147706 -0.00511409 -0.00568137 -0.000147706 -0.000162442 -0.00568137 -0.00618627 -0.00511409 -0.00568137 -0.00742526 -0.00823849 -0.00568137 -0.00618627 -0.00823849 -0.00896171 -0.000162442 -0.000175283 -0.00618627 -0.0066236 -0.000175283 -0.000186082 -0.0066236 -0.0069889 -0.00618627 -0.0066236 -0.00896171 -0.00958756 -0.0066236 -0.0069889 -0.00958756 -0.0101097 -0.00742526 -0.00823849 -0.0082983 -0.00920172 -0.00823849 -0.00896171 -0.00920172 -0.0100047 -0.0082983 -0.00920172 -0.00870621 -0.00965119 -0.00920172 -0.0100047 -0.00965119 -0.0104907 -0.00896171 -0.00958756 -0.0100047 -0.0106992 -0.00958756 -0.0101097 -0.0106992 -0.0112783 -0.0100047 -0.0106992 -0.0104907 -0.0112166 -0.0106992 -0.0112783 -0.0112166 -0.0118215 -0.000186082 -0.000194715 -0.0069889 -0.00727844 -0.000194715 -0.000201085 -0.00727844 -0.00748925 -0.0069889 -0.00727844 -0.0101097 -0.010523 -0.00727844 -0.00748925 -0.010523 -0.0108233 -0.000201085 -0.000205116 -0.00748925 -0.00761915 -0.000205116 -0.000206752 -0.00761915 -0.00766672 -0.00748925 -0.00761915 -0.0108233 -0.0110075 -0.00761915 -0.00766672 -0.0110075 -0.0110737 -0.0101097 -0.010523 -0.0112783 -0.0117363 -0.010523 -0.0108233 -0.0117363 -0.0120688 -0.0112783 -0.0117363 -0.0118215 -0.0122999 -0.0117363 -0.0120688 -0.0122999 -0.0126472 -0.0108233 -0.0110075 -0.0120688 -0.0122725 -0.0110075 -0.0110737 -0.0122725 -0.0123453 -0.0120688 -0.0122725 -0.0126472 -0.01286 -0.0122725 -0.0123453 -0.01286 -0.0129362 -0.00870621 -0.00965119 -0.00906863 -0.0100505 -0.00965119 -0.0104907 -0.0100505 -0.0109223 -0.00906863 -0.0100505 -0.00950441 -0.0105303 -0.0100505 -0.0109223 -0.0105303 -0.0114405 -0.0104907 -0.0112166 -0.0109223 -0.0116756 -0.0112166 -0.0118215 -0.0116756 -0.0123034 -0.0109223 -0.0116756 -0.0114405 -0.0122264 -0.0116756 -0.0123034 -0.0122264 -0.012881 -0.00950441 -0.0105303 -0.010042 -0.0111216 -0.0105303 -0.0114405 -0.0111216 -0.0120783 -0.010042 -0.0111216 -0.0106917 -0.011835 -0.0111216 -0.0120783 -0.011835 -0.0128467 -0.0114405 -0.0122264 -0.0120783 -0.0129036 -0.0122264 -0.012881 -0.0129036 -0.0135905 -0.0120783 -0.0129036 -0.0128467 -0.0137184 -0.0129036 -0.0135905 -0.0137184 -0.0144432 -0.0118215 -0.0122999 -0.0123034 -0.0127996 -0.0122999 -0.0126472 -0.0127996 -0.01316 -0.0123034 -0.0127996 -0.012881 -0.0133984 -0.0127996 -0.01316 -0.0133984 -0.0137743 -0.0126472 -0.01286 -0.01316 -0.0133811 -0.01286 -0.0129362 -0.0133811 -0.0134609 -0.01316 -0.0133811 -0.0137743 -0.0140053 -0.0133811 -0.0134609 -0.0140053 -0.0140894 -0.012881 -0.0133984 -0.0135905 -0.0141334 -0.0133984 -0.0137743 -0.0141334 -0.0145278 -0.0135905 -0.0141334 -0.0144432 -0.0150157 -0.0141334 -0.0145278 -0.0150157 -0.0154319 -0.0137743 -0.0140053 -0.0145278 -0.0147707 -0.0140053 -0.0140894 -0.0147707 -0.0148601 -0.0145278 -0.0147707 -0.0154319 -0.0156887 -0.0147707 -0.0148601 -0.0156887 -0.0157843 0.00255612 -0.000974961 0.00352391 -0.00115435 -0.000974961 -0.00181304 -0.00115435 -0.00192502 0.00352391 -0.00115435 0.00466647 -0.00136617 -0.00115435 -0.00192502 -0.00136617 -0.00205781 -0.00181304 -0.00346778 -0.00192502 -0.00373185 -0.00346778 -0.00503813 -0.00373185 -0.00541279 -0.00192502 -0.00373185 -0.00205781 -0.00404409 -0.00373185 -0.00541279 -0.00404409 -0.00585515 0.00466647 -0.00136617 0.00599845 -0.00161354 -0.00136617 -0.00205781 -0.00161354 -0.00221433 0.00599845 -0.00161354 0.00753719 -0.00190025 -0.00161354 -0.00221433 -0.00190025 -0.00239839 -0.00205781 -0.00404409 -0.00221433 -0.00441055 -0.00404409 -0.00585515 -0.00441055 -0.00637354 -0.00221433 -0.00441055 -0.00239839 -0.00483902 -0.00441055 -0.00637354 -0.00483902 -0.00697861 -0.00503813 -0.00658623 -0.00541279 -0.00707406 -0.00658623 -0.00805357 -0.00707406 -0.00864508 -0.00541279 -0.00707406 -0.00585515 -0.00764894 -0.00707406 -0.00864508 -0.00764894 -0.00934069 -0.00805357 -0.0094272 -0.00864508 -0.0101133 -0.0094272 -0.0106917 -0.0101133 -0.0114623 -0.00864508 -0.0101133 -0.00934069 -0.0109184 -0.0101133 -0.0114623 -0.0109184 -0.0123644 -0.00585515 -0.00764894 -0.00637354 -0.00832117 -0.00764894 -0.00934069 -0.00832117 -0.0101521 -0.00637354 -0.00832117 -0.00697861 -0.00910373 -0.00832117 -0.0101521 -0.00910373 -0.0110938 -0.00934069 -0.0109184 -0.0101521 -0.0118549 -0.0109184 -0.0123644 -0.0118549 -0.0134107 -0.0101521 -0.0118549 -0.0110938 -0.0129382 -0.0118549 -0.0134107 -0.0129382 -0.0146166 0.00753719 -0.00190025 0.00930316 -0.00223097 -0.00190025 -0.00239839 -0.00223097 -0.00261502 0.00930316 -0.00223097 0.0113205 -0.00261146 -0.00223097 -0.00261502 -0.00261146 -0.00287087 -0.00239839 -0.00483902 -0.00261502 -0.0053395 -0.00483902 -0.00697861 -0.0053395 -0.00768393 -0.00261502 -0.0053395 -0.00287087 -0.00592499 -0.0053395 -0.00768393 -0.00592499 -0.00850704 0.0113205 -0.00261146 0.0136175 -0.00304886 -0.00261146 -0.00287087 -0.00304886 -0.00317485 0.0136175 -0.00304886 0.0162281 -0.0035522 -0.00304886 -0.00317485 -0.0035522 -0.00353912 -0.00287087 -0.00592499 -0.00317485 -0.0066126 -0.00592499 -0.00850704 -0.0066126 -0.00947081 -0.00317485 -0.0066126 -0.00353912 -0.00742518 -0.0066126 -0.00947081 -0.00742518 -0.0106055 -0.00697861 -0.00910373 -0.00768393 -0.010013 -0.00910373 -0.0110938 -0.010013 -0.0121839 -0.00768393 -0.010013 -0.00850704 -0.0110699 -0.010013 -0.0121839 -0.0110699 -0.0134452 -0.0110938 -0.0129382 -0.0121839 -0.014187 -0.0129382 -0.0146166 -0.014187 -0.0160008 -0.0121839 -0.014187 -0.0134452 -0.0156247 -0.014187 -0.0160008 -0.0156247 -0.0175859 -0.00850704 -0.0110699 -0.00947081 -0.0123015 -0.0110699 -0.0134452 -0.0123015 -0.0149068 -0.00947081 -0.0123015 -0.0106055 -0.0137428 -0.0123015 -0.0149068 -0.0137428 -0.0166056 -0.0134452 -0.0156247 -0.0149068 -0.0172803 -0.0156247 -0.0175859 -0.0172803 -0.0193993 -0.0149068 -0.0172803 -0.0166056 -0.01919 -0.0172803 -0.0193993 -0.01919 -0.0214745 -0.0106917 -0.011835 -0.0114623 -0.0126796 -0.011835 -0.0128467 -0.0126796 -0.0137548 -0.0114623 -0.0126796 -0.0123644 -0.0136659 -0.0126796 -0.0137548 -0.0136659 -0.0148129 -0.0128467 -0.0137184 -0.0137548 -0.0146797 -0.0137184 -0.0144432 -0.0146797 -0.0154476 -0.0137548 -0.0146797 -0.0148129 -0.0157973 -0.0146797 -0.0154476 -0.0157973 -0.0166134 -0.0123644 -0.0136659 -0.0134107 -0.0148067 -0.0136659 -0.0148129 -0.0148067 -0.016033 -0.0134107 -0.0148067 -0.0146166 -0.0161167 -0.0148067 -0.016033 -0.0161167 -0.0174294 -0.0148129 -0.0157973 -0.016033 -0.0170828 -0.0157973 -0.0166134 -0.0170828 -0.0179511 -0.016033 -0.0170828 -0.0174294 -0.0185492 -0.0170828 -0.0179511 -0.0185492 -0.0194727 -0.0144432 -0.0150157 -0.0154476 -0.0160538 -0.0150157 -0.0154319 -0.0160538 -0.0164946 -0.0154476 -0.0160538 -0.0166134 -0.0172568 -0.0160538 -0.0164946 -0.0172568 -0.0177247 -0.0154319 -0.0156887 -0.0164946 -0.0167673 -0.0156887 -0.0157843 -0.0167673 -0.0168701 -0.0164946 -0.0167673 -0.0177247 -0.018015 -0.0167673 -0.0168701 -0.018015 -0.0181261 -0.0166134 -0.0172568 -0.0179511 -0.0186347 -0.0172568 -0.0177247 -0.0186347 -0.0191318 -0.0179511 -0.0186347 -0.0194727 -0.0201985 -0.0186347 -0.0191318 -0.0201985 -0.020726 -0.0177247 -0.018015 -0.0191318 -0.019441 -0.018015 -0.0181261 -0.019441 -0.0195613 -0.0191318 -0.019441 -0.020726 -0.0210551 -0.019441 -0.0195613 -0.0210551 -0.0211854 -0.0146166 -0.0161167 -0.0160008 -0.0176138 -0.0161167 -0.0174294 -0.0176138 -0.0190184 -0.0160008 -0.0176138 -0.0175859 -0.0193189 -0.0176138 -0.0190184 -0.0193189 -0.0208187 -0.0174294 -0.0185492 -0.0190184 -0.0202112 -0.0185492 -0.0194727 -0.0202112 -0.0211913 -0.0190184 -0.0202112 -0.0208187 -0.0220851 -0.0202112 -0.0211913 -0.0220851 -0.0231209 -0.0175859 -0.0193189 -0.0193993 -0.0212568 -0.0193189 -0.0208187 -0.0212568 -0.0228518 -0.0193993 -0.0212568 -0.0214745 -0.0234568 -0.0212568 -0.0228518 -0.0234568 -0.0251421 -0.0208187 -0.0220851 -0.0228518 -0.024189 -0.0220851 -0.0231209 -0.024189 -0.025276 -0.0228518 -0.024189 -0.0251421 -0.0265421 -0.024189 -0.025276 -0.0265421 -0.0276713 -0.0194727 -0.0201985 -0.0211913 -0.0219597 -0.0201985 -0.020726 -0.0219597 -0.0225178 -0.0211913 -0.0219597 -0.0231209 -0.0239301 -0.0219597 -0.0225178 -0.0239301 -0.0245173 -0.020726 -0.0210551 -0.0225178 -0.022867 -0.0210551 -0.0211854 -0.022867 -0.023008 -0.0225178 -0.022867 -0.0245173 -0.0248859 -0.022867 -0.023008 -0.0248859 -0.025038 -0.0231209 -0.0239301 -0.025276 -0.0261216 -0.0239301 -0.0245173 -0.0261216 -0.026734 -0.025276 -0.0261216 -0.0276713 -0.0285447 -0.0261216 -0.026734 -0.0285447 -0.0291758 -0.0245173 -0.0248859 -0.026734 -0.0271199 -0.0248859 -0.025038 -0.0271199 -0.0272831 -0.026734 -0.0271199 -0.0291758 -0.0295749 -0.0271199 -0.0272831 -0.0295749 -0.0297485 -0.000206752 -0.000205961 -0.00766672 -0.0076313 -0.000205961 -0.000202738 -0.0076313 -0.00751302 -0.00766672 -0.0076313 -0.0110737 -0.0110211 -0.0076313 -0.00751302 -0.0110211 -0.01085 -0.000202738 -0.000197103 -0.00751302 -0.00731284 -0.000197103 -0.0001891 -0.00731284 -0.00703249 -0.00751302 -0.00731284 -0.01085 -0.0105617 -0.00731284 -0.00703249 -0.0105617 -0.0101588 -0.0110737 -0.0110211 -0.0123453 -0.0122863 -0.0110211 -0.01085 -0.0122863 -0.0120958 -0.0123453 -0.0122863 -0.0129362 -0.012875 -0.0122863 -0.0120958 -0.012875 -0.0126766 -0.01085 -0.0105617 -0.0120958 -0.0117755 -0.0105617 -0.0101588 -0.0117755 -0.011328 -0.0120958 -0.0117755 -0.0126766 -0.0123425 -0.0117755 -0.011328 -0.0123425 -0.0118756 -0.0001891 -0.000178799 -0.00703249 -0.00667454 -0.000178799 -0.000166302 -0.00667454 -0.0062424 -0.00703249 -0.00667454 -0.0101588 -0.00964497 -0.00667454 -0.0062424 -0.00964497 -0.00902505 -0.000166302 -0.000151734 -0.0062424 -0.00574032 -0.000151734 -0.000135258 -0.00574032 -0.00517333 -0.0062424 -0.00574032 -0.00902505 -0.00830511 -0.00574032 -0.00517333 -0.00830511 -0.0074923 -0.0101588 -0.00964497 -0.011328 -0.0107573 -0.00964497 -0.00902505 -0.0107573 -0.0100689 -0.011328 -0.0107573 -0.0118756 -0.0112798 -0.0107573 -0.0100689 -0.0112798 -0.0105606 -0.00902505 -0.00830511 -0.0100689 -0.0092692 -0.00830511 -0.0074923 -0.0092692 -0.00836622 -0.0100689 -0.0092692 -0.0105606 -0.00972474 -0.0092692 -0.00836622 -0.00972474 -0.00878025 -0.0129362 -0.012875 -0.0134609 -0.0133984 -0.012875 -0.0126766 -0.0133984 -0.0131938 -0.0134609 -0.0133984 -0.0140894 -0.0140256 -0.0133984 -0.0131938 -0.0140256 -0.0138141 -0.0126766 -0.0123425 -0.0131938 -0.0128486 -0.0123425 -0.0118756 -0.0128486 -0.0123655 -0.0131938 -0.0128486 -0.0138141 -0.0134561 -0.0128486 -0.0123655 -0.0134561 -0.0129543 -0.0140894 -0.0140256 -0.0148601 -0.0147949 -0.0140256 -0.0138141 -0.0147949 -0.0145753 -0.0148601 -0.0147949 -0.0157843 -0.0157177 -0.0147949 -0.0145753 -0.0157177 -0.0154888 -0.0138141 -0.0134561 -0.0145753 -0.0142022 -0.0134561 -0.0129543 -0.0142022 -0.0136781 -0.0145753 -0.0142022 -0.0154888 -0.0150984 -0.0142022 -0.0136781 -0.0150984 -0.0145485 -0.0118756 -0.0112798 -0.0123655 -0.0117485 -0.0112798 -0.0105606 -0.0117485 -0.0110028 -0.0123655 -0.0117485 -0.0129543 -0.0123124 -0.0117485 -0.0110028 -0.0123124 -0.0115356 -0.0105606 -0.00972474 -0.0110028 -0.0101353 -0.00972474 -0.00878025 -0.0101353 -0.00915403 -0.0110028 -0.0101353 -0.0115356 -0.0106306 -0.0101353 -0.00915403 -0.0106306 -0.00960552 -0.0129543 -0.0123124 -0.0136781 -0.0130064 -0.0123124 -0.0115356 -0.0130064 -0.0121921 -0.0136781 -0.0130064 -0.0145485 -0.0138421 -0.0130064 -0.0121921 -0.0138421 -0.0129839 -0.0115356 -0.0106306 -0.0121921 -0.0112417 -0.0106306 -0.00960552 -0.0112417 -0.0101633 -0.0121921 -0.0112417 -0.0129839 -0.01198 -0.0112417 -0.0101633 -0.01198 -0.0108384 -0.000135258 -0.000117006 -0.00517333 -0.00454759 -0.000117006 -9.73778e-05 -0.00454759 -0.00386845 -0.00517333 -0.00454759 -0.0074923 -0.0065953 -0.00454759 -0.00386845 -0.0065953 -0.00562211 -9.73778e-05 -7.56115e-05 -0.00386845 -0.00315043 -7.56115e-05 -5.61932e-05 -0.00315043 -0.00236771 -0.00386845 -0.00315043 -0.00562211 -0.00459095 -0.00315043 -0.00236771 -0.00459095 -0.00347451 -0.0074923 -0.0065953 -0.00836622 -0.00736944 -0.0065953 -0.00562211 -0.00736944 -0.00628781 -0.00836622 -0.00736944 -0.00878025 -0.007737 -0.00736944 -0.00628781 -0.007737 -0.00660439 -0.00562211 -0.00459095 -0.00628781 -0.00514086 -0.00459095 -0.00347451 -0.00514086 -0.00390304 -0.00628781 -0.00514086 -0.00660439 -0.00540276 -0.00514086 -0.00390304 -0.00540276 -0.00410708 -5.61932e-05 -3.36479e-05 -0.00236771 -0.00171294 -3.36479e-05 8.73973e-05 -0.00171294 -0.000247209 -0.00236771 -0.00171294 -0.00347451 -0.00250419 -0.00171294 -0.000247209 -0.00250419 -0.000634732 8.73973e-05 -7.37919e-05 -0.000247209 -0.00304515 -7.37919e-05 0.0230666 -0.00304515 0.0205378 -0.000247209 -0.00304515 -0.000634732 -0.00333744 -0.00304515 0.0205378 -0.00333744 0.0217465 -0.00347451 -0.00250419 -0.00390304 -0.00281265 -0.00250419 -0.000634732 -0.00281265 -0.000800016 -0.00390304 -0.00281265 -0.00410708 -0.00295804 -0.00281265 -0.000800016 -0.00295804 -0.00087433 -0.000634732 -0.00333744 -0.000800016 -0.00347692 -0.00333744 0.0217465 -0.00347692 0.0217664 -0.000800016 -0.00347692 -0.00087433 -0.00353593 -0.00347692 0.0217664 -0.00353593 0.0219832 -0.00878025 -0.007737 -0.00915403 -0.00806913 -0.007737 -0.00660439 -0.00806913 -0.00689031 -0.00915403 -0.00806913 -0.00960552 -0.00847069 -0.00806913 -0.00689031 -0.00847069 -0.00723608 -0.00660439 -0.00540276 -0.00689031 -0.00563852 -0.00540276 -0.00410708 -0.00563852 -0.00428837 -0.00689031 -0.00563852 -0.00723608 -0.00592331 -0.00563852 -0.00428837 -0.00592331 -0.00450661 -0.00960552 -0.00847069 -0.0101633 -0.00896742 -0.00847069 -0.00723608 -0.00896742 -0.00766426 -0.0101633 -0.00896742 -0.0108384 -0.00956959 -0.00896742 -0.00766426 -0.00956959 -0.00818415 -0.00723608 -0.00592331 -0.00766426 -0.0062763 -0.00592331 -0.00450661 -0.0062763 -0.00477745 -0.00766426 -0.0062763 -0.00818415 -0.00670557 -0.0062763 -0.00477745 -0.00670557 -0.00510745 -0.00410708 -0.00295804 -0.00428837 -0.00308457 -0.00295804 -0.00087433 -0.00308457 -0.000927645 -0.00428837 -0.00308457 -0.00450661 -0.0032371 -0.00308457 -0.000927645 -0.0032371 -0.000992092 -0.00087433 -0.00353593 -0.000927645 -0.0036051 -0.00353593 0.0219832 -0.0036051 0.0223627 -0.000927645 -0.0036051 -0.000992092 -0.00370233 -0.0036051 0.0223627 -0.00370233 0.0228788 -0.00450661 -0.0032371 -0.00477745 -0.00342738 -0.0032371 -0.000992092 -0.00342738 -0.00107343 -0.00477745 -0.00342738 -0.00510745 -0.00365997 -0.00342738 -0.00107343 -0.00365997 -0.0011734 -0.000992092 -0.00370233 -0.00107343 -0.00382698 -0.00370233 0.0228788 -0.00382698 0.023543 -0.00107343 -0.00382698 -0.0011734 -0.00398075 -0.00382698 0.023543 -0.00398075 0.0243623 -0.0157843 -0.0157177 -0.0168701 -0.0168022 -0.0157177 -0.0154888 -0.0168022 -0.0165632 -0.0168701 -0.0168022 -0.0181261 -0.0180571 -0.0168022 -0.0165632 -0.0180571 -0.0178075 -0.0154888 -0.0150984 -0.0165632 -0.0161536 -0.0150984 -0.0145485 -0.0161536 -0.0155748 -0.0165632 -0.0161536 -0.0178075 -0.0173774 -0.0161536 -0.0155748 -0.0173774 -0.0167672 -0.0181261 -0.0180571 -0.0195613 -0.0194919 -0.0180571 -0.0178075 -0.0194919 -0.0192318 -0.0195613 -0.0194919 -0.0211854 -0.0211163 -0.0194919 -0.0192318 -0.0211163 -0.0208465 -0.0178075 -0.0173774 -0.0192318 -0.0187804 -0.0173774 -0.0167672 -0.0187804 -0.0181374 -0.0192318 -0.0187804 -0.0208465 -0.0203744 -0.0187804 -0.0181374 -0.0203744 -0.0196982 -0.0145485 -0.0138421 -0.0155748 -0.0148293 -0.0138421 -0.0129839 -0.0148293 -0.013921 -0.0155748 -0.0148293 -0.0167672 -0.0159787 -0.0148293 -0.013921 -0.0159787 -0.0150148 -0.0129839 -0.01198 -0.013921 -0.0128556 -0.01198 -0.0108384 -0.0128556 -0.0116408 -0.013921 -0.0128556 -0.0150148 -0.0138804 -0.0128556 -0.0116408 -0.0138804 -0.0125823 -0.0167672 -0.0159787 -0.0181374 -0.017303 -0.0159787 -0.0150148 -0.017303 -0.0162789 -0.0181374 -0.017303 -0.0196982 -0.0188165 -0.017303 -0.0162789 -0.0188165 -0.0177288 -0.0150148 -0.0138804 -0.0162789 -0.0150684 -0.0138804 -0.0125823 -0.0150684 -0.0136774 -0.0162789 -0.0150684 -0.0177288 -0.0164366 -0.0150684 -0.0136774 -0.0164366 -0.0149438 -0.0211854 -0.0211163 -0.023008 -0.0229405 -0.0211163 -0.0208465 -0.0229405 -0.0226626 -0.023008 -0.0229405 -0.025038 -0.0249737 -0.0229405 -0.0226626 -0.0249737 -0.0246907 -0.0208465 -0.0203744 -0.0226626 -0.0221716 -0.0203744 -0.0196982 -0.0221716 -0.0214638 -0.0226626 -0.0221716 -0.0246907 -0.0241846 -0.0221716 -0.0214638 -0.0241846 -0.0234492 -0.025038 -0.0249737 -0.0272831 -0.0272242 -0.0249737 -0.0246907 -0.0272242 -0.0269405 -0.0272831 -0.0272242 -0.0297485 -0.0296981 -0.0272242 -0.0269405 -0.0296981 -0.02942 -0.0246907 -0.0241846 -0.0269405 -0.0264255 -0.0241846 -0.0234492 -0.0264255 -0.02567 -0.0269405 -0.0264255 -0.02942 -0.0289056 -0.0264255 -0.02567 -0.0289056 -0.0281416 -0.0196982 -0.0188165 -0.0214638 -0.0205354 -0.0188165 -0.0177288 -0.0205354 -0.0193829 -0.0214638 -0.0205354 -0.0234492 -0.0224774 -0.0205354 -0.0193829 -0.0224774 -0.0212619 -0.0177288 -0.0164366 -0.0193829 -0.0180049 -0.0164366 -0.0149438 -0.0180049 -0.0164027 -0.0193829