# vtk DataFile Version 3.0
#This file was generated by the deal.II library on 2026/1/5 at 14:19:31
ASCII
DATASET UNSTRUCTURED_GRID

POINTS 4096 double
0 0 0
0.03125 0 0
0 0.03125 0
0.03125 0.03125 0
0.03125 0 0
0.0625 0 0
0.03125 0.03125 0
0.0625 0.03125 0
0 0.03125 0
0.03125 0.03125 0
0 0.0625 0
0.03125 0.0625 0
0.03125 0.03125 0
0.0625 0.03125 0
0.03125 0.0625 0
0.0625 0.0625 0
0.0625 0 0
0.09375 0 0
0.0625 0.03125 0
0.09375 0.03125 0
0.09375 0 0
0.125 0 0
0.09375 0.03125 0
0.125 0.03125 0
0.0625 0.03125 0
0.09375 0.03125 0
0.0625 0.0625 0
0.09375 0.0625 0
0.09375 0.03125 0
0.125 0.03125 0
0.09375 0.0625 0
0.125 0.0625 0
0 0.0625 0
0.03125 0.0625 0
0 0.09375 0
0.03125 0.09375 0
0.03125 0.0625 0
0.0625 0.0625 0
0.03125 0.09375 0
0.0625 0.09375 0
0 0.09375 0
0.03125 0.09375 0
0 0.125 0
0.03125 0.125 0
0.03125 0.09375 0
0.0625 0.09375 0
0.03125 0.125 0
0.0625 0.125 0
0.0625 0.0625 0
0.09375 0.0625 0
0.0625 0.09375 0
0.09375 0.09375 0
0.09375 0.0625 0
0.125 0.0625 0
0.09375 0.09375 0
0.125 0.09375 0
0.0625 0.09375 0
0.09375 0.09375 0
0.0625 0.125 0
0.09375 0.125 0
0.09375 0.09375 0
0.125 0.09375 0
0.09375 0.125 0
0.125 0.125 0
0.125 0 0
0.15625 0 0
0.125 0.03125 0
0.15625 0.03125 0
0.15625 0 0
0.1875 0 0
0.15625 0.03125 0
0.1875 0.03125 0
0.125 0.03125 0
0.15625 0.03125 0
0.125 0.0625 0
0.15625 0.0625 0
0.15625 0.03125 0
0.1875 0.03125 0
0.15625 0.0625 0
0.1875 0.0625 0
0.1875 0 0
0.21875 0 0
0.1875 0.03125 0
0.21875 0.03125 0
0.21875 0 0
0.25 0 0
0.21875 0.03125 0
0.25 0.03125 0
0.1875 0.03125 0
0.21875 0.03125 0
0.1875 0.0625 0
0.21875 0.0625 0
0.21875 0.03125 0
0.25 0.03125 0
0.21875 0.0625 0
0.25 0.0625 0
0.125 0.0625 0
0.15625 0.0625 0
0.125 0.09375 0
0.15625 0.09375 0
0.15625 0.0625 0
0.1875 0.0625 0
0.15625 0.09375 0
0.1875 0.09375 0
0.125 0.09375 0
0.15625 0.09375 0
0.125 0.125 0
0.15625 0.125 0
0.15625 0.09375 0
0.1875 0.09375 0
0.15625 0.125 0
0.1875 0.125 0
0.1875 0.0625 0
0.21875 0.0625 0
0.1875 0.09375 0
0.21875 0.09375 0
0.21875 0.0625 0
0.25 0.0625 0
0.21875 0.09375 0
0.25 0.09375 0
0.1875 0.09375 0
0.21875 0.09375 0
0.1875 0.125 0
0.21875 0.125 0
0.21875 0.09375 0
0.25 0.09375 0
0.21875 0.125 0
0.25 0.125 0
0 0.125 0
0.03125 0.125 0
0 0.15625 0
0.03125 0.15625 0
0.03125 0.125 0
0.0625 0.125 0
0.03125 0.15625 0
0.0625 0.15625 0
0 0.15625 0
0.03125 0.15625 0
0 0.1875 0
0.03125 0.1875 0
0.03125 0.15625 0
0.0625 0.15625 0
0.03125 0.1875 0
0.0625 0.1875 0
0.0625 0.125 0
0.09375 0.125 0
0.0625 0.15625 0
0.09375 0.15625 0
0.09375 0.125 0
0.125 0.125 0
0.09375 0.15625 0
0.125 0.15625 0
0.0625 0.15625 0
0.09375 0.15625 0
0.0625 0.1875 0
0.09375 0.1875 0
0.09375 0.15625 0
0.125 0.15625 0
0.09375 0.1875 0
0.125 0.1875 0
0 0.1875 0
0.03125 0.1875 0
0 0.21875 0
0.03125 0.21875 0
0.03125 0.1875 0
0.0625 0.1875 0
0.03125 0.21875 0
0.0625 0.21875 0
0 0.21875 0
0.03125 0.21875 0
0 0.25 0
0.03125 0.25 0
0.03125 0.21875 0
0.0625 0.21875 0
0.03125 0.25 0
0.0625 0.25 0
0.0625 0.1875 0
0.09375 0.1875 0
0.0625 0.21875 0
0.09375 0.21875 0
0.09375 0.1875 0
0.125 0.1875 0
0.09375 0.21875 0
0.125 0.21875 0
0.0625 0.21875 0
0.09375 0.21875 0
0.0625 0.25 0
0.09375 0.25 0
0.09375 0.21875 0
0.125 0.21875 0
0.09375 0.25 0
0.125 0.25 0
0.125 0.125 0
0.15625 0.125 0
0.125 0.15625 0
0.15625 0.15625 0
0.15625 0.125 0
0.1875 0.125 0
0.15625 0.15625 0
0.1875 0.15625 0
0.125 0.15625 0
0.15625 0.15625 0
0.125 0.1875 0
0.15625 0.1875 0
0.15625 0.15625 0
0.1875 0.15625 0
0.15625 0.1875 0
0.1875 0.1875 0
0.1875 0.125 0
0.21875 0.125 0
0.1875 0.15625 0
0.21875 0.15625 0
0.21875 0.125 0
0.25 0.125 0
0.21875 0.15625 0
0.25 0.15625 0
0.1875 0.15625 0
0.21875 0.15625 0
0.1875 0.1875 0
0.21875 0.1875 0
0.21875 0.15625 0
0.25 0.15625 0
0.21875 0.1875 0
0.25 0.1875 0
0.125 0.1875 0
0.15625 0.1875 0
0.125 0.21875 0
0.15625 0.21875 0
0.15625 0.1875 0
0.1875 0.1875 0
0.15625 0.21875 0
0.1875 0.21875 0
0.125 0.21875 0
0.15625 0.21875 0
0.125 0.25 0
0.15625 0.25 0
0.15625 0.21875 0
0.1875 0.21875 0
0.15625 0.25 0
0.1875 0.25 0
0.1875 0.1875 0
0.21875 0.1875 0
0.1875 0.21875 0
0.21875 0.21875 0
0.21875 0.1875 0
0.25 0.1875 0
0.21875 0.21875 0
0.25 0.21875 0
0.1875 0.21875 0
0.21875 0.21875 0
0.1875 0.25 0
0.21875 0.25 0
0.21875 0.21875 0
0.25 0.21875 0
0.21875 0.25 0
0.25 0.25 0
0.25 0 0
0.28125 0 0
0.25 0.03125 0
0.28125 0.03125 0
0.28125 0 0
0.3125 0 0
0.28125 0.03125 0
0.3125 0.03125 0
0.25 0.03125 0
0.28125 0.03125 0
0.25 0.0625 0
0.28125 0.0625 0
0.28125 0.03125 0
0.3125 0.03125 0
0.28125 0.0625 0
0.3125 0.0625 0
0.3125 0 0
0.34375 0 0
0.3125 0.03125 0
0.34375 0.03125 0
0.34375 0 0
0.375 0 0
0.34375 0.03125 0
0.375 0.03125 0
0.3125 0.03125 0
0.34375 0.03125 0
0.3125 0.0625 0
0.34375 0.0625 0
0.34375 0.03125 0
0.375 0.03125 0
0.34375 0.0625 0
0.375 0.0625 0
0.25 0.0625 0
0.28125 0.0625 0
0.25 0.09375 0
0.28125 0.09375 0
0.28125 0.0625 0
0.3125 0.0625 0
0.28125 0.09375 0
0.3125 0.09375 0
0.25 0.09375 0
0.28125 0.09375 0
0.25 0.125 0
0.28125 0.125 0
0.28125 0.09375 0
0.3125 0.09375 0
0.28125 0.125 0
0.3125 0.125 0
0.3125 0.0625 0
0.34375 0.0625 0
0.3125 0.09375 0
0.34375 0.09375 0
0.34375 0.0625 0
0.375 0.0625 0
0.34375 0.09375 0
0.375 0.09375 0
0.3125 0.09375 0
0.34375 0.09375 0
0.3125 0.125 0
0.34375 0.125 0
0.34375 0.09375 0
0.375 0.09375 0
0.34375 0.125 0
0.375 0.125 0
0.375 0 0
0.40625 0 0
0.375 0.03125 0
0.40625 0.03125 0
0.40625 0 0
0.4375 0 0
0.40625 0.03125 0
0.4375 0.03125 0
0.375 0.03125 0
0.40625 0.03125 0
0.375 0.0625 0
0.40625 0.0625 0
0.40625 0.03125 0
0.4375 0.03125 0
0.40625 0.0625 0
0.4375 0.0625 0
0.4375 0 0
0.46875 0 0
0.4375 0.03125 0
0.46875 0.03125 0
0.46875 0 0
0.5 0 0
0.46875 0.03125 0
0.5 0.03125 0
0.4375 0.03125 0
0.46875 0.03125 0
0.4375 0.0625 0
0.46875 0.0625 0
0.46875 0.03125 0
0.5 0.03125 0
0.46875 0.0625 0
0.5 0.0625 0
0.375 0.0625 0
0.40625 0.0625 0
0.375 0.09375 0
0.40625 0.09375 0
0.40625 0.0625 0
0.4375 0.0625 0
0.40625 0.09375 0
0.4375 0.09375 0
0.375 0.09375 0
0.40625 0.09375 0
0.375 0.125 0
0.40625 0.125 0
0.40625 0.09375 0
0.4375 0.09375 0
0.40625 0.125 0
0.4375 0.125 0
0.4375 0.0625 0
0.46875 0.0625 0
0.4375 0.09375 0
0.46875 0.09375 0
0.46875 0.0625 0
0.5 0.0625 0
0.46875 0.09375 0
0.5 0.09375 0
0.4375 0.09375 0
0.46875 0.09375 0
0.4375 0.125 0
0.46875 0.125 0
0.46875 0.09375 0
0.5 0.09375 0
0.46875 0.125 0
0.5 0.125 0
0.25 0.125 0
0.28125 0.125 0
0.25 0.15625 0
0.28125 0.15625 0
0.28125 0.125 0
0.3125 0.125 0
0.28125 0.15625 0
0.3125 0.15625 0
0.25 0.15625 0
0.28125 0.15625 0
0.25 0.1875 0
0.28125 0.1875 0
0.28125 0.15625 0
0.3125 0.15625 0
0.28125 0.1875 0
0.3125 0.1875 0
0.3125 0.125 0
0.34375 0.125 0
0.3125 0.15625 0
0.34375 0.15625 0
0.34375 0.125 0
0.375 0.125 0
0.34375 0.15625 0
0.375 0.15625 0
0.3125 0.15625 0
0.34375 0.15625 0
0.3125 0.1875 0
0.34375 0.1875 0
0.34375 0.15625 0
0.375 0.15625 0
0.34375 0.1875 0
0.375 0.1875 0
0.25 0.1875 0
0.28125 0.1875 0
0.25 0.21875 0
0.28125 0.21875 0
0.28125 0.1875 0
0.3125 0.1875 0
0.28125 0.21875 0
0.3125 0.21875 0
0.25 0.21875 0
0.28125 0.21875 0
0.25 0.25 0
0.28125 0.25 0
0.28125 0.21875 0
0.3125 0.21875 0
0.28125 0.25 0
0.3125 0.25 0
0.3125 0.1875 0
0.34375 0.1875 0
0.3125 0.21875 0
0.34375 0.21875 0
0.34375 0.1875 0
0.375 0.1875 0
0.34375 0.21875 0
0.375 0.21875 0
0.3125 0.21875 0
0.34375 0.21875 0
0.3125 0.25 0
0.34375 0.25 0
0.34375 0.21875 0
0.375 0.21875 0
0.34375 0.25 0
0.375 0.25 0
0.375 0.125 0
0.40625 0.125 0
0.375 0.15625 0
0.40625 0.15625 0
0.40625 0.125 0
0.4375 0.125 0
0.40625 0.15625 0
0.4375 0.15625 0
0.375 0.15625 0
0.40625 0.15625 0
0.375 0.1875 0
0.40625 0.1875 0
0.40625 0.15625 0
0.4375 0.15625 0
0.40625 0.1875 0
0.4375 0.1875 0
0.4375 0.125 0
0.46875 0.125 0
0.4375 0.15625 0
0.46875 0.15625 0
0.46875 0.125 0
0.5 0.125 0
0.46875 0.15625 0
0.5 0.15625 0
0.4375 0.15625 0
0.46875 0.15625 0
0.4375 0.1875 0
0.46875 0.1875 0
0.46875 0.15625 0
0.5 0.15625 0
0.46875 0.1875 0
0.5 0.1875 0
0.375 0.1875 0
0.40625 0.1875 0
0.375 0.21875 0
0.40625 0.21875 0
0.40625 0.1875 0
0.4375 0.1875 0
0.40625 0.21875 0
0.4375 0.21875 0
0.375 0.21875 0
0.40625 0.21875 0
0.375 0.25 0
0.40625 0.25 0
0.40625 0.21875 0
0.4375 0.21875 0
0.40625 0.25 0
0.4375 0.25 0
0.4375 0.1875 0
0.46875 0.1875 0
0.4375 0.21875 0
0.46875 0.21875 0
0.46875 0.1875 0
0.5 0.1875 0
0.46875 0.21875 0
0.5 0.21875 0
0.4375 0.21875 0
0.46875 0.21875 0
0.4375 0.25 0
0.46875 0.25 0
0.46875 0.21875 0
0.5 0.21875 0
0.46875 0.25 0
0.5 0.25 0
0 0.25 0
0.03125 0.25 0
0 0.28125 0
0.03125 0.28125 0
0.03125 0.25 0
0.0625 0.25 0
0.03125 0.28125 0
0.0625 0.28125 0
0 0.28125 0
0.03125 0.28125 0
0 0.3125 0
0.03125 0.3125 0
0.03125 0.28125 0
0.0625 0.28125 0
0.03125 0.3125 0
0.0625 0.3125 0
0.0625 0.25 0
0.09375 0.25 0
0.0625 0.28125 0
0.09375 0.28125 0
0.09375 0.25 0
0.125 0.25 0
0.09375 0.28125 0
0.125 0.28125 0
0.0625 0.28125 0
0.09375 0.28125 0
0.0625 0.3125 0
0.09375 0.3125 0
0.09375 0.28125 0
0.125 0.28125 0
0.09375 0.3125 0
0.125 0.3125 0
0 0.3125 0
0.03125 0.3125 0
0 0.34375 0
0.03125 0.34375 0
0.03125 0.3125 0
0.0625 0.3125 0
0.03125 0.34375 0
0.0625 0.34375 0
0 0.34375 0
0.03125 0.34375 0
0 0.375 0
0.03125 0.375 0
0.03125 0.34375 0
0.0625 0.34375 0
0.03125 0.375 0
0.0625 0.375 0
0.0625 0.3125 0
0.09375 0.3125 0
0.0625 0.34375 0
0.09375 0.34375 0
0.09375 0.3125 0
0.125 0.3125 0
0.09375 0.34375 0
0.125 0.34375 0
0.0625 0.34375 0
0.09375 0.34375 0
0.0625 0.375 0
0.09375 0.375 0
0.09375 0.34375 0
0.125 0.34375 0
0.09375 0.375 0
0.125 0.375 0
0.125 0.25 0
0.15625 0.25 0
0.125 0.28125 0
0.15625 0.28125 0
0.15625 0.25 0
0.1875 0.25 0
0.15625 0.28125 0
0.1875 0.28125 0
0.125 0.28125 0
0.15625 0.28125 0
0.125 0.3125 0
0.15625 0.3125 0
0.15625 0.28125 0
0.1875 0.28125 0
0.15625 0.3125 0
0.1875 0.3125 0
0.1875 0.25 0
0.21875 0.25 0
0.1875 0.28125 0
0.21875 0.28125 0
0.21875 0.25 0
0.25 0.25 0
0.21875 0.28125 0
0.25 0.28125 0
0.1875 0.28125 0
0.21875 0.28125 0
0.1875 0.3125 0
0.21875 0.3125 0
0.21875 0.28125 0
0.25 0.28125 0
0.21875 0.3125 0
0.25 0.3125 0
0.125 0.3125 0
0.15625 0.3125 0
0.125 0.34375 0
0.15625 0.34375 0
0.15625 0.3125 0
0.1875 0.3125 0
0.15625 0.34375 0
0.1875 0.34375 0
0.125 0.34375 0
[...]
POINT_DATA 4096
SCALARS u_x double 1
LOOKUP_TABLE default
1.06245e-05 1.53094e-05 -5.36156e-05 -0.000144216 1.53094e-05 1.53355e-05 -0.000144216 -0.000638611 -5.36156e-05 -0.000144216 -0.000163876 -0.000335599 -0.000144216 -0.000638611 -0.000335599 -0.00125551 1.53355e-05 2.96685e-06 -0.000638611 -0.00139601 2.96685e-06 -1.31471e-05 -0.00139601 -0.0023073 -0.000638611 -0.00139601 -0.00125551 -0.00253902 -0.00139601 -0.0023073 -0.00253902 -0.00404389 -0.000163876 -0.000335599 -0.000225197 -0.000467072 -0.000335599 -0.00125551 -0.000467072 -0.00168528 -0.000225197 -0.000467072 -0.000200455 -0.000551003 -0.000467072 -0.00168528 -0.000551003 -0.00194869 -0.00125551 -0.00253902 -0.00168528 -0.00332622 -0.00253902 -0.00404389 -0.00332622 -0.00521339 -0.00168528 -0.00332622 -0.00194869 -0.00382639 -0.00332622 -0.00521339 -0.00382639 -0.00596178 -1.31471e-05 -2.94292e-05 -0.0023073 -0.00327345 -2.94292e-05 -4.47439e-05 -0.00327345 -0.00423396 -0.0023073 -0.00327345 -0.00404389 -0.00563034 -0.00327345 -0.00423396 -0.00563034 -0.00720894 -4.47439e-05 -5.89251e-05 -0.00423396 -0.00515461 -5.89251e-05 -7.20086e-05 -0.00515461 -0.00601618 -0.00423396 -0.00515461 -0.00720894 -0.00872461 -0.00515461 -0.00601618 -0.00872461 -0.0101443 -0.00404389 -0.00563034 -0.00521339 -0.00718702 -0.00563034 -0.00720894 -0.00718702 -0.00914605 -0.00521339 -0.00718702 -0.00596178 -0.00818192 -0.00718702 -0.00914605 -0.00818192 -0.0103787 -0.00720894 -0.00872461 -0.00914605 -0.0110261 -0.00872461 -0.0101443 -0.0110261 -0.0127869 -0.00914605 -0.0110261 -0.0103787 -0.0124839 -0.0110261 -0.0127869 -0.0124839 -0.0144541 -0.000200455 -0.000551003 -7.99405e-05 -0.000615444 -0.000551003 -0.00194869 -0.000615444 -0.00211383 -7.99405e-05 -0.000615444 0.000137363 -0.000681498 -0.000615444 -0.00211383 -0.000681498 -0.00223987 -0.00194869 -0.00382639 -0.00211383 -0.00415913 -0.00382639 -0.00596178 -0.00415913 -0.00647011 -0.00211383 -0.00415913 -0.00223987 -0.00442713 -0.00415913 -0.00647011 -0.00442713 -0.00688623 0.000137363 -0.000681498 0.00045201 -0.000761286 -0.000681498 -0.00223987 -0.000761286 -0.00236397 0.00045201 -0.000761286 0.000866445 -0.000861008 -0.000761286 -0.00236397 -0.000861008 -0.00250571 -0.00223987 -0.00442713 -0.00236397 -0.00469724 -0.00442713 -0.00688623 -0.00469724 -0.00730662 -0.00236397 -0.00469724 -0.00250571 -0.00500634 -0.00469724 -0.00730662 -0.00500634 -0.00778541 -0.00596178 -0.00818192 -0.00647011 -0.00886555 -0.00818192 -0.0103787 -0.00886555 -0.0112298 -0.00647011 -0.00886555 -0.00688623 -0.0094327 -0.00886555 -0.0112298 -0.0094327 -0.0119416 -0.0103787 -0.0124839 -0.0112298 -0.013492 -0.0124839 -0.0144541 -0.013492 -0.0156072 -0.0112298 -0.013492 -0.0119416 -0.0143393 -0.013492 -0.0156072 -0.0143393 -0.0165791 -0.00688623 -0.0094327 -0.00730662 -0.0100088 -0.0094327 -0.0119416 -0.0100088 -0.0126679 -0.00730662 -0.0100088 -0.00778541 -0.0106643 -0.0100088 -0.0126679 -0.0106643 -0.013494 -0.0119416 -0.0143393 -0.0126679 -0.0152064 -0.0143393 -0.0165791 -0.0152064 -0.0175755 -0.0126679 -0.0152064 -0.013494 -0.0161926 -0.0152064 -0.0175755 -0.0161926 -0.0187087 -7.20086e-05 -8.4008e-05 -0.00601618 -0.00680636 -8.4008e-05 -9.48747e-05 -0.00680636 -0.00751574 -0.00601618 -0.00680636 -0.0101443 -0.0114462 -0.00680636 -0.00751574 -0.0114462 -0.0126139 -9.48747e-05 -0.000104519 -0.00751574 -0.00813631 -0.000104519 -0.000112833 -0.00813631 -0.00866094 -0.00751574 -0.00813631 -0.0126139 -0.0136338 -0.00813631 -0.00866094 -0.0136338 -0.0144942 -0.0101443 -0.0114462 -0.0127869 -0.014401 -0.0114462 -0.0126139 -0.014401 -0.0158477 -0.0127869 -0.014401 -0.0144541 -0.0162593 -0.014401 -0.0158477 -0.0162593 -0.0178764 -0.0126139 -0.0136338 -0.0158477 -0.01711 -0.0136338 -0.0144942 -0.01711 -0.0181734 -0.0158477 -0.01711 -0.0178764 -0.0192865 -0.01711 -0.0181734 -0.0192865 -0.0204736 -0.000112833 -0.000119703 -0.00866094 -0.00908339 -0.000119703 -0.000125022 -0.00908339 -0.00939836 -0.00866094 -0.00908339 -0.0144942 -0.0151851 -0.00908339 -0.00939836 -0.0151851 -0.0156979 -0.000125022 -0.000128696 -0.00939836 -0.00960155 -0.000128696 -0.000130644 -0.00960155 -0.00968972 -0.00939836 -0.00960155 -0.0156979 -0.0160259 -0.00960155 -0.00968972 -0.0160259 -0.0161643 -0.0144942 -0.0151851 -0.0181734 -0.0190256 -0.0151851 -0.0156979 -0.0190256 -0.0196565 -0.0181734 -0.0190256 -0.0204736 -0.0214241 -0.0190256 -0.0196565 -0.0214241 -0.0221271 -0.0156979 -0.0160259 -0.0196565 -0.0200579 -0.0160259 -0.0161643 -0.0200579 -0.0202241 -0.0196565 -0.0200579 -0.0221271 -0.0225738 -0.0200579 -0.0202241 -0.0225738 -0.0227578 -0.0144541 -0.0162593 -0.0156072 -0.0175441 -0.0162593 -0.0178764 -0.0175441 -0.0192784 -0.0156072 -0.0175441 -0.0165791 -0.0186287 -0.0175441 -0.0192784 -0.0186287 -0.0204633 -0.0178764 -0.0192865 -0.0192784 -0.0207903 -0.0192865 -0.0204736 -0.0207903 -0.022063 -0.0192784 -0.0207903 -0.0204633 -0.0220625 -0.0207903 -0.022063 -0.0220625 -0.0234092 -0.0165791 -0.0186287 -0.0175755 -0.0197419 -0.0186287 -0.0204633 -0.0197419 -0.0216805 -0.0175755 -0.0197419 -0.0187087 -0.0210077 -0.0197419 -0.0216805 -0.0210077 -0.0230638 -0.0204633 -0.0220625 -0.0216805 -0.0233703 -0.0220625 -0.0234092 -0.0233703 -0.0247941 -0.0216805 -0.0233703 -0.0230638 -0.0248561 -0.0233703 -0.0247941 -0.0248561 -0.0263672 -0.0204736 -0.0214241 -0.022063 -0.0230823 -0.0214241 -0.0221271 -0.0230823 -0.0238367 -0.022063 -0.0230823 -0.0234092 -0.0244888 -0.0230823 -0.0238367 -0.0244888 -0.0252895 -0.0221271 -0.0225738 -0.0238367 -0.024317 -0.0225738 -0.0227578 -0.024317 -0.0245165 -0.0238367 -0.024317 -0.0252895 -0.0258019 -0.024317 -0.0245165 -0.0258019 -0.0260189 -0.0234092 -0.0244888 -0.0247941 -0.0259373 -0.0244888 -0.0252895 -0.0259373 -0.0267878 -0.0247941 -0.0259373 -0.0263672 -0.0275826 -0.0259373 -0.0267878 -0.0275826 -0.0284904 -0.0252895 -0.0258019 -0.0267878 -0.027336 -0.0258019 -0.0260189 -0.027336 -0.0275744 -0.0267878 -0.027336 -0.0284904 -0.0290806 -0.027336 -0.0275744 -0.0290806 -0.0293456 0.000866445 -0.000861008 0.00138541 -0.000983975 -0.000861008 -0.00250571 -0.000983975 -0.00267468 0.00138541 -0.000983975 0.00201577 -0.0011326 -0.000983975 -0.00267468 -0.0011326 -0.00287638 -0.00250571 -0.00500634 -0.00267468 -0.00537365 -0.00500634 -0.00778541 -0.00537365 -0.00835149 -0.00267468 -0.00537365 -0.00287638 -0.00581069 -0.00537365 -0.00835149 -0.00581069 -0.00902244 0.00201577 -0.0011326 0.00276639 -0.00130942 -0.0011326 -0.00287638 -0.00130942 -0.00311543 0.00276639 -0.00130942 0.00364809 -0.00151753 -0.00130942 -0.00311543 -0.00151753 -0.00339725 -0.00287638 -0.00581069 -0.00311543 -0.00632727 -0.00581069 -0.00902244 -0.00632727 -0.00981308 -0.00311543 -0.00632727 -0.00339725 -0.00693448 -0.00632727 -0.00981308 -0.00693448 -0.0107398 -0.00778541 -0.0106643 -0.00835149 -0.011437 -0.0106643 -0.013494 -0.011437 -0.0144659 -0.00835149 -0.011437 -0.00902244 -0.0123501 -0.011437 -0.0144659 -0.0123501 -0.0156112 -0.013494 -0.0161926 -0.0144659 -0.0173509 -0.0161926 -0.0187087 -0.0173509 -0.0200374 -0.0144659 -0.0173509 -0.0156112 -0.0187126 -0.0173509 -0.0200374 -0.0187126 -0.021596 -0.00902244 -0.0123501 -0.00981308 -0.0134229 -0.0123501 -0.0156112 -0.0134229 -0.0169529 -0.00981308 -0.0134229 -0.0107398 -0.0146764 -0.0134229 -0.0169529 -0.0146764 -0.0185153 -0.0156112 -0.0187126 -0.0169529 -0.0203031 -0.0187126 -0.021596 -0.0203031 -0.0234113 -0.0169529 -0.0203031 -0.0185153 -0.0221489 -0.0203031 -0.0234113 -0.0221489 -0.0255104 0.00364809 -0.00151753 0.00467384 -0.00176088 -0.00151753 -0.00339725 -0.00176088 -0.00372886 0.00467384 -0.00176088 0.00585907 -0.00204449 -0.00176088 -0.00372886 -0.00204449 -0.00411967 -0.00339725 -0.00693448 -0.00372886 -0.00764641 -0.00693448 -0.0107398 -0.00764641 -0.0118231 -0.00372886 -0.00764641 -0.00411967 -0.00848156 -0.00764641 -0.0118231 -0.00848156 -0.0130894 0.00585907 -0.00204449 0.00722203 -0.00237482 -0.00204449 -0.00411967 -0.00237482 -0.00458242 0.00722203 -0.00237482 0.00878445 -0.00276034 -0.00237482 -0.00458242 -0.00276034 -0.00513461 -0.00411967 -0.00848156 -0.00458242 -0.00946461 -0.00848156 -0.0130894 -0.00946461 -0.0145739 -0.00458242 -0.00946461 -0.00513461 -0.0106289 -0.00946461 -0.0145739 -0.0106289 -0.0163231 -0.0107398 -0.0146764 -0.0118231 -0.0161364 -0.0146764 -0.0185153 -0.0161364 -0.020328 -0.0118231 -0.0161364 -0.0130894 -0.0178358 -0.0161364 -0.020328 -0.0178358 -0.022428 -0.0185153 -0.0221489 -0.020328 -0.0242813 -0.0221489 -0.0255104 -0.0242813 -0.0279252 -0.020328 -0.0242813 -0.022428 -0.0267391 -0.0242813 -0.0279252 -0.0267391 -0.0306939 -0.0130894 -0.0178358 -0.0145739 -0.0198176 -0.0178358 -0.022428 -0.0198176 -0.0248625 -0.0145739 -0.0198176 -0.0163231 -0.0221379 -0.0198176 -0.0248625 -0.0221379 -0.0276926 -0.022428 -0.0267391 -0.0248625 -0.0295707 -0.0267391 -0.0306939 -0.0295707 -0.033863 -0.0248625 -0.0295707 -0.0276926 -0.0328372 -0.0295707 -0.033863 -0.0328372 -0.0374902 -0.0187087 -0.0210077 -0.0200374 -0.0224897 -0.0210077 -0.0230638 -0.0224897 -0.0246812 -0.0200374 -0.0224897 -0.021596 -0.0242242 -0.0224897 -0.0246812 -0.0242242 -0.0265705 -0.0230638 -0.0248561 -0.0246812 -0.0265912 -0.0248561 -0.0263672 -0.0265912 -0.0282025 -0.0246812 -0.0265912 -0.0265705 -0.0286143 -0.0265912 -0.0282025 -0.0286143 -0.0303394 -0.021596 -0.0242242 -0.0234113 -0.0262388 -0.0242242 -0.0265705 -0.0262388 -0.0287591 -0.0234113 -0.0262388 -0.0255104 -0.0285605 -0.0262388 -0.0287591 -0.0285605 -0.0312732 -0.0265705 -0.0286143 -0.0287591 -0.0309526 -0.0286143 -0.0303394 -0.0309526 -0.0328045 -0.0287591 -0.0309526 -0.0312732 -0.033631 -0.0309526 -0.0328045 -0.033631 -0.0356212 -0.0263672 -0.0275826 -0.0282025 -0.0295011 -0.0275826 -0.0284904 -0.0295011 -0.0304751 -0.0282025 -0.0295011 -0.0303394 -0.0317324 -0.0295011 -0.0304751 -0.0317324 -0.0327823 -0.0284904 -0.0290806 -0.0304751 -0.0311148 -0.0290806 -0.0293456 -0.0311148 -0.0314122 -0.0304751 -0.0311148 -0.0327823 -0.0334795 -0.0311148 -0.0314122 -0.0334795 -0.0338158 -0.0303394 -0.0317324 -0.0328045 -0.0343029 -0.0317324 -0.0327823 -0.0343029 -0.0354378 -0.0328045 -0.0343029 -0.0356212 -0.0372345 -0.0343029 -0.0354378 -0.0372345 -0.0384631 -0.0327823 -0.0334795 -0.0354378 -0.0362006 -0.0334795 -0.0338158 -0.0362006 -0.0365832 -0.0354378 -0.0362006 -0.0384631 -0.0392997 -0.0362006 -0.0365832 -0.0392997 -0.0397365 -0.0255104 -0.0285605 -0.0279252 -0.03122 -0.0285605 -0.0312732 -0.03122 -0.0341415 -0.0279252 -0.03122 -0.0306939 -0.0342532 -0.03122 -0.0341415 -0.0342532 -0.0373968 -0.0312732 -0.033631 -0.0341415 -0.0366756 -0.033631 -0.0356212 -0.0366756 -0.0388132 -0.0341415 -0.0366756 -0.0373968 -0.0401152 -0.0366756 -0.0388132 -0.0401152 -0.0424055 -0.0306939 -0.0342532 -0.033863 -0.0377031 -0.0342532 -0.0373968 -0.0377031 -0.0410764 -0.033863 -0.0377031 -0.0374902 -0.0416206 -0.0377031 -0.0410764 -0.0416206 -0.0452235 -0.0373968 -0.0401152 -0.0410764 -0.0439816 -0.0401152 -0.0424055 -0.0439816 -0.046424 -0.0410764 -0.0439816 -0.0452235 -0.0483091 -0.0439816 -0.046424 -0.0483091 -0.0508948 -0.0356212 -0.0372345 -0.0388132 -0.0405489 -0.0372345 -0.0384631 -0.0405489 -0.0418783 -0.0388132 -0.0405489 -0.0424055 -0.0442678 -0.0405489 -0.0418783 -0.0442678 -0.0457025 -0.0384631 -0.0392997 -0.0418783 -0.0427963 -0.0392997 -0.0397365 -0.0427963 -0.0432962 -0.0418783 -0.0427963 -0.0457025 -0.0467085 -0.0427963 -0.0432962 -0.0467085 -0.0472808 -0.0424055 -0.0442678 -0.046424 -0.0484119 -0.0442678 -0.0457025 -0.0484119 -0.049953 -0.046424 -0.0484119 -0.0508948 -0.0530004 -0.0484119 -0.049953 -0.0530004 -0.0546432 -0.0457025 -0.0467085 -0.049953 -0.0510514 -0.0467085 -0.0472808 -0.0510514 -0.0517056 -0.049953 -0.0510514 -0.0546432 -0.0558353 -0.0510514 -0.0517056 -0.0558353 -0.0565799 -0.000130644 -0.0001308 -0.00968972 -0.00966077 -0.0001308 -0.000129118 -0.00966077 -0.00951383 -0.00968972 -0.00966077 -0.0161643 -0.0161098 -0.00966077 -0.00951383 -0.0161098 -0.0158614 -0.000129118 -0.000125572 -0.00951383 -0.00924927 -0.000125572 -0.000120164 -0.00924927 -0.00886882 -0.00951383 -0.00924927 -0.0158614 -0.01542 -0.00924927 -0.00886882 -0.01542 -0.0147887 -0.0161643 -0.0161098 -0.0202241 -0.0201516 -0.0161098 -0.0158614 -0.0201516 -0.0198391 -0.0202241 -0.0201516 -0.0227578 -0.0226754 -0.0201516 -0.0198391 -0.0226754 -0.0223252 -0.0158614 -0.01542 -0.0198391 -0.019288 -0.01542 -0.0147887 -0.019288 -0.0185023 -0.0198391 -0.019288 -0.0223252 -0.0217088 -0.019288 -0.0185023 -0.0217088 -0.0208304 -0.000120164 -0.000112921 -0.00886882 -0.00837564 -0.000112921 -0.000103893 -0.00837564 -0.00777432 -0.00886882 -0.00837564 -0.0147887 -0.0139729 -0.00837564 -0.00777432 -0.0139729 -0.0129805 -0.000103893 -9.3152e-05 -0.00777432 -0.00707095 -9.3152e-05 -8.07833e-05 -0.00707095 -0.00627326 -0.00777432 -0.00707095 -0.0129805 -0.0118216 -0.00707095 -0.00627326 -0.0118216 -0.0105094 -0.0147887 -0.0139729 -0.0185023 -0.0174888 -0.0139729 -0.0129805 -0.0174888 -0.0162571 -0.0185023 -0.0174888 -0.0208304 -0.0196974 -0.0174888 -0.0162571 -0.0196974 -0.0183204 -0.0129805 -0.0118216 -0.0162571 -0.0148201 -0.0118216 -0.0105094 -0.0148201 -0.0131944 -0.0162571 -0.0148201 -0.0183204 -0.0167137 -0.0148201 -0.0131944 -0.0167137 -0.0148955 -0.0227578 -0.0226754 -0.0245165 -0.0244311 -0.0226754 -0.0223252 -0.0244311 -0.0240593 -0.0245165 -0.0244311 -0.0260189 -0.0259359 -0.0244311 -0.0240593 -0.0259359 -0.0255509 -0.0223252 -0.0217088 -0.0240593 -0.0234023 -0.0217088 -0.0208304 -0.0234023 -0.0224642 -0.0240593 -0.0234023 -0.0255509 -0.0248646 -0.0234023 -0.0224642 -0.0248646 -0.0238807 -0.0260189 -0.0259359 -0.0275744 -0.027498 -0.0259359 -0.0255509 -0.027498 -0.027104 -0.0275744 -0.027498 -0.0293456 -0.0292795 -0.027498 -0.027104 -0.0292795 -0.0288787 -0.0255509 -0.0248646 -0.027104 -0.0263922 -0.0248646 -0.0238807 -0.0263922 -0.0253653 -0.027104 -0.0263922 -0.0288787 -0.0281418 -0.0263922 -0.0253653 -0.0281418 -0.0270702 -0.0208304 -0.0196974 -0.0224642 -0.0212524 -0.0196974 -0.0183204 -0.0212524 -0.0197779 -0.0224642 -0.0212524 -0.0238807 -0.022606 -0.0212524 -0.0197779 -0.022606 -0.0210511 -0.0183204 -0.0167137 -0.0197779 -0.0180552 -0.0167137 -0.0148955 -0.0180552 -0.0161037 -0.0197779 -0.0180552 -0.0210511 -0.0192306 -0.0180552 -0.0161037 -0.0192306 -0.0171641 -0.0238807 -0.022606 -0.0253653 -0.0240294 -0.022606 -0.0210511 -0.0240294 -0.0223941 -0.0253653 -0.0240294 -0.0270702 -0.0256683 -0.0240294 -0.0223941 -0.0256683 -0.0239447 -0.0210511 -0.0192306 -0.0223941 -0.0204738 -0.0192306 -0.0171641 -0.0204738 -0.0182876 -0.0223941 -0.0204738 -0.0239447 -0.0219126 -0.0204738 -0.0182876 -0.0219126 -0.0195909 -8.07833e-05 -6.68351e-05 -0.00627326 -0.00539131 -6.68351e-05 -5.14555e-05 -0.00539131 -0.00443845 -0.00627326 -0.00539131 -0.0105094 -0.00906124 -0.00539131 -0.00443845 -0.00906124 -0.00750048 -5.14555e-05 -3.42335e-05 -0.00443845 -0.00343998 -3.42335e-05 -1.79222e-05 -0.00343998 -0.00241723 -0.00443845 -0.00343998 -0.00750048 -0.0058674 -0.00343998 -0.00241723 -0.0058674 -0.00420318 -0.0105094 -0.00906124 -0.0131944 -0.0114015 -0.00906124 -0.00750048 -0.0114015 -0.00947083 -0.0131944 -0.0114015 -0.0148955 -0.01289 -0.0114015 -0.00947083 -0.01289 -0.0107293 -0.00750048 -0.0058674 -0.00947083 -0.00745028 -0.0058674 -0.00420318 -0.00745028 -0.00539135 -0.00947083 -0.00745028 -0.0107293 -0.00846509 -0.00745028 -0.00539135 -0.00846509 -0.00615365 -1.79222e-05 -5.99086e-07 -0.00241723 -0.00152473 -5.99086e-07 6.60354e-05 -0.00152473 -0.000348867 -0.00241723 -0.00152473 -0.00420318 -0.00270806 -0.00152473 -0.000348867 -0.00270806 -0.000949696 6.60354e-05 -3.05089e-05 -0.000348867 -0.00167789 -3.05089e-05 0.0129977 -0.00167789 0.0115547 -0.000348867 -0.00167789 -0.000949696 -0.0019483 -0.00167789 0.0115547 -0.0019483 0.0121279 -0.00420318 -0.00270806 -0.00539135 -0.00350894 -0.00270806 -0.000949696 -0.00350894 -0.00138168 -0.00539135 -0.00350894 -0.00615365 -0.00401775 -0.00350894 -0.00138168 -0.00401775 -0.00164997 -0.000949696 -0.0019483 -0.00138168 -0.00211679 -0.0019483 0.0121279 -0.00211679 0.0120321 -0.00138168 -0.00211679 -0.00164997 -0.00220299 -0.00211679 0.0120321 -0.00220299 0.0120505 -0.0148955 -0.01289 -0.0161037 -0.0139484 -0.01289 -0.0107293 -0.0139484 -0.0116234 -0.0161037 -0.0139484 -0.0171641 -0.0148775 -0.0139484 -0.0116234 -0.0148775 -0.0124059 -0.0107293 -0.00846509 -0.0116234 -0.00918252 -0.00846509 -0.00615365 -0.00918252 -0.00668571 -0.0116234 -0.00918252 -0.0124059 -0.00980612 -0.00918252 -0.00668571 -0.00980612 -0.00714226 -0.0171641 -0.0148775 -0.0182876 -0.0158624 -0.0148775 -0.0124059 -0.0158624 -0.0132348 -0.0182876 -0.0158624 -0.0195909 -0.0170069 -0.0158624 -0.0132348 -0.0170069 -0.0141991 -0.0124059 -0.00980612 -0.0132348 -0.0104649 -0.00980612 -0.00714226 -0.0104649 -0.00762266 -0.0132348 -0.0104649 -0.0141991 -0.0112322 -0.0104649 -0.00762266 -0.0112322 -0.00818313 -0.00615365 -0.00401775 -0.00668571 -0.00436439 -0.00401775 -0.00164997 -0.00436439 -0.00182009 -0.00668571 -0.00436439 -0.00714226 -0.00465704 -0.00436439 -0.00182009 -0.00465704 -0.00195711 -0.00164997 -0.00220299 -0.00182009 -0.00226758 -0.00220299 0.0120505 -0.00226758 0.0121787 -0.00182009 -0.00226758 -0.00195711 -0.00233728 -0.00226758 0.0121787 -0.00233728 0.0124013 -0.00714226 -0.00465704 -0.00762266 -0.00496467 -0.00465704 -0.00195711 -0.00496467 -0.00209906 -0.00762266 -0.00496467 -0.00818313 -0.00532535 -0.00496467 -0.00209906 -0.00532535 -0.00226582 -0.00195711 -0.00233728 -0.00209906 -0.00242288 -0.00233728 0.0124013 -0.00242288 0.0127217 -0.00209906 -0.00242288 -0.00226582 -0.0025307 -0.00242288 0.0127217 -0.0025307 0.013142 -0.0293456 -0.0292795 -0.0314122 -0.0313607 -0.0292795 -0.0288787 -0.0313607 -0.0309553 -0.0314122 -0.0313607 -0.0338158 -0.0337838 -0.0313607 -0.0309553 -0.0337838 -0.0333773 -0.0288787 -0.0281418 -0.0309553 -0.0301933 -0.0281418 -0.0270702 -0.0301933 -0.0290738 -0.0309553 -0.0301933 -0.0333773 -0.0325911 -0.0301933 -0.0290738 -0.0325911 -0.0314221 -0.0338158 -0.0337838 -0.0365832 -0.0365772 -0.0337838 -0.0333773 -0.0365772 -0.0361747 -0.0365832 -0.0365772 -0.0397365 -0.0397647 -0.0365772 -0.0361747 -0.0397647 -0.0393741 -0.0333773 -0.0325911 -0.0361747 -0.0353679 -0.0325911 -0.0314221 -0.0353679 -0.03415 -0.0361747 -0.0353679 -0.0393741 -0.0385536 -0.0353679 -0.03415 -0.0385536 -0.0372916 -0.0270702 -0.0256683 -0.0290738 -0.0275996 -0.0256683 -0.0239447 -0.0275996 -0.0257769 -0.0290738 -0.0275996 -0.0314221 -0.0298697 -0.0275996 -0.0257769 -0.0298697 -0.0279375 -0.0239447 -0.0219126 -0.0257769 -0.0236174 -0.0219126 -0.0195909 -0.0236174 -0.0211392 -0.0257769 -0.0236174 -0.0279375 -0.0256346 -0.0236174 -0.0211392 -0.0256346 -0.0229774 -0.0314221 -0.0298697 -0.03415 -0.0325165 -0.0298697 -0.0279375 -0.0325165 -0.0304666 -0.03415 -0.0325165 -0.0372916 -0.0355782 -0.0325165 -0.0304666 -0.0355782 -0.0334064 -0.0279375 -0.0256346 -0.0304666 -0.0280055 -0.0256346 -0.0229774 -0.0280055 -0.0251467 -0.0304666 -0.0280055 -0.0334064 -0.0307753 -0.0280055 -0.0251467 -0.0307753 -0.0276938 -0.0397365 -0.0397647 -0.0432962 -0.0433687 -0.0397647 -0.0393741 -0.0433687 -0.0430013 -0.0432962 -0.0433687 -0.0472808 -0.0474101 -0.0433687 -0.0430013 -0.0474101 -0.0470814 -0.0393741 -0.0385536 -0.0430013 -0.0421786 -0.0385536 -0.0372916 -0.0421786 -0.0408831 -0.0430013 -0.0421786 -0.0470814 -0.0462741 -0.0421786 -0.0408831 -0.0462741 -0.0449632 -0.0472808 -0.0474101 -0.0517056 -0.0519066 -0.0474101 -0.0470814 -0.0519066 -0.0516369 -0.0517056 -0.0519066 -0.0565799 -0.0568699 -0.0519066 -0.0516369 -0.0568699 -0.0566857 -0.0470814 -0.0462741 -0.0516369 -0.0508704 -0.0462741 -0.0449632 -0.0508704 -0.0495722 -0.0516369 -0.0508704 -0.0566857 -0.0559946 -0.0508704 -0.0495722 -0.0559946 -0.0547506 -0.0372916 -0.0355782 -0.0408831 -0.0390971 -0.0355782 -0.0334064 -0.0390971 -0.0368051 -0.0408831 -0.0390971 -0.0449632 -0.0431208 -0.0390971 -0.0368051 -0.0431208 -0.0407194 -0.0334064 -0.0307753 -0.0368051 -0.0339975 -0.0307753 -0.0276938 -0.0339975 -0.0306754 -0.0368051 -0.0339975 -0.0407194 -0.0377368 -0.0339975 -0.0306754 -0.0377368 -0.034162 -0.0449632 -0.0431208 -0.0495722 -0.0477017 -0.04