# vtk DataFile Version 3.0
#This file was generated by the deal.II library on 2026/1/5 at 14:19:32
ASCII
DATASET UNSTRUCTURED_GRID

POINTS 4096 double
0 0 0
0.03125 0 0
0 0.03125 0
0.03125 0.03125 0
0.03125 0 0
0.0625 0 0
0.03125 0.03125 0
0.0625 0.03125 0
0 0.03125 0
0.03125 0.03125 0
0 0.0625 0
0.03125 0.0625 0
0.03125 0.03125 0
0.0625 0.03125 0
0.03125 0.0625 0
0.0625 0.0625 0
0.0625 0 0
0.09375 0 0
0.0625 0.03125 0
0.09375 0.03125 0
0.09375 0 0
0.125 0 0
0.09375 0.03125 0
0.125 0.03125 0
0.0625 0.03125 0
0.09375 0.03125 0
0.0625 0.0625 0
0.09375 0.0625 0
0.09375 0.03125 0
0.125 0.03125 0
0.09375 0.0625 0
0.125 0.0625 0
0 0.0625 0
0.03125 0.0625 0
0 0.09375 0
0.03125 0.09375 0
0.03125 0.0625 0
0.0625 0.0625 0
0.03125 0.09375 0
0.0625 0.09375 0
0 0.09375 0
0.03125 0.09375 0
0 0.125 0
0.03125 0.125 0
0.03125 0.09375 0
0.0625 0.09375 0
0.03125 0.125 0
0.0625 0.125 0
0.0625 0.0625 0
0.09375 0.0625 0
0.0625 0.09375 0
0.09375 0.09375 0
0.09375 0.0625 0
0.125 0.0625 0
0.09375 0.09375 0
0.125 0.09375 0
0.0625 0.09375 0
0.09375 0.09375 0
0.0625 0.125 0
0.09375 0.125 0
0.09375 0.09375 0
0.125 0.09375 0
0.09375 0.125 0
0.125 0.125 0
0.125 0 0
0.15625 0 0
0.125 0.03125 0
0.15625 0.03125 0
0.15625 0 0
0.1875 0 0
0.15625 0.03125 0
0.1875 0.03125 0
0.125 0.03125 0
0.15625 0.03125 0
0.125 0.0625 0
0.15625 0.0625 0
0.15625 0.03125 0
0.1875 0.03125 0
0.15625 0.0625 0
0.1875 0.0625 0
0.1875 0 0
0.21875 0 0
0.1875 0.03125 0
0.21875 0.03125 0
0.21875 0 0
0.25 0 0
0.21875 0.03125 0
0.25 0.03125 0
0.1875 0.03125 0
0.21875 0.03125 0
0.1875 0.0625 0
0.21875 0.0625 0
0.21875 0.03125 0
0.25 0.03125 0
0.21875 0.0625 0
0.25 0.0625 0
0.125 0.0625 0
0.15625 0.0625 0
0.125 0.09375 0
0.15625 0.09375 0
0.15625 0.0625 0
0.1875 0.0625 0
0.15625 0.09375 0
0.1875 0.09375 0
0.125 0.09375 0
0.15625 0.09375 0
0.125 0.125 0
0.15625 0.125 0
0.15625 0.09375 0
0.1875 0.09375 0
0.15625 0.125 0
0.1875 0.125 0
0.1875 0.0625 0
0.21875 0.0625 0
0.1875 0.09375 0
0.21875 0.09375 0
0.21875 0.0625 0
0.25 0.0625 0
0.21875 0.09375 0
0.25 0.09375 0
0.1875 0.09375 0
0.21875 0.09375 0
0.1875 0.125 0
0.21875 0.125 0
0.21875 0.09375 0
0.25 0.09375 0
0.21875 0.125 0
0.25 0.125 0
0 0.125 0
0.03125 0.125 0
0 0.15625 0
0.03125 0.15625 0
0.03125 0.125 0
0.0625 0.125 0
0.03125 0.15625 0
0.0625 0.15625 0
0 0.15625 0
0.03125 0.15625 0
0 0.1875 0
0.03125 0.1875 0
0.03125 0.15625 0
0.0625 0.15625 0
0.03125 0.1875 0
0.0625 0.1875 0
0.0625 0.125 0
0.09375 0.125 0
0.0625 0.15625 0
0.09375 0.15625 0
0.09375 0.125 0
0.125 0.125 0
0.09375 0.15625 0
0.125 0.15625 0
0.0625 0.15625 0
0.09375 0.15625 0
0.0625 0.1875 0
0.09375 0.1875 0
0.09375 0.15625 0
0.125 0.15625 0
0.09375 0.1875 0
0.125 0.1875 0
0 0.1875 0
0.03125 0.1875 0
0 0.21875 0
0.03125 0.21875 0
0.03125 0.1875 0
0.0625 0.1875 0
0.03125 0.21875 0
0.0625 0.21875 0
0 0.21875 0
0.03125 0.21875 0
0 0.25 0
0.03125 0.25 0
0.03125 0.21875 0
0.0625 0.21875 0
0.03125 0.25 0
0.0625 0.25 0
0.0625 0.1875 0
0.09375 0.1875 0
0.0625 0.21875 0
0.09375 0.21875 0
0.09375 0.1875 0
0.125 0.1875 0
0.09375 0.21875 0
0.125 0.21875 0
0.0625 0.21875 0
0.09375 0.21875 0
0.0625 0.25 0
0.09375 0.25 0
0.09375 0.21875 0
0.125 0.21875 0
0.09375 0.25 0
0.125 0.25 0
0.125 0.125 0
0.15625 0.125 0
0.125 0.15625 0
0.15625 0.15625 0
0.15625 0.125 0
0.1875 0.125 0
0.15625 0.15625 0
0.1875 0.15625 0
0.125 0.15625 0
0.15625 0.15625 0
0.125 0.1875 0
0.15625 0.1875 0
0.15625 0.15625 0
0.1875 0.15625 0
0.15625 0.1875 0
0.1875 0.1875 0
0.1875 0.125 0
0.21875 0.125 0
0.1875 0.15625 0
0.21875 0.15625 0
0.21875 0.125 0
0.25 0.125 0
0.21875 0.15625 0
0.25 0.15625 0
0.1875 0.15625 0
0.21875 0.15625 0
0.1875 0.1875 0
0.21875 0.1875 0
0.21875 0.15625 0
0.25 0.15625 0
0.21875 0.1875 0
0.25 0.1875 0
0.125 0.1875 0
0.15625 0.1875 0
0.125 0.21875 0
0.15625 0.21875 0
0.15625 0.1875 0
0.1875 0.1875 0
0.15625 0.21875 0
0.1875 0.21875 0
0.125 0.21875 0
0.15625 0.21875 0
0.125 0.25 0
0.15625 0.25 0
0.15625 0.21875 0
0.1875 0.21875 0
0.15625 0.25 0
0.1875 0.25 0
0.1875 0.1875 0
0.21875 0.1875 0
0.1875 0.21875 0
0.21875 0.21875 0
0.21875 0.1875 0
0.25 0.1875 0
0.21875 0.21875 0
0.25 0.21875 0
0.1875 0.21875 0
0.21875 0.21875 0
0.1875 0.25 0
0.21875 0.25 0
0.21875 0.21875 0
0.25 0.21875 0
0.21875 0.25 0
0.25 0.25 0
0.25 0 0
0.28125 0 0
0.25 0.03125 0
0.28125 0.03125 0
0.28125 0 0
0.3125 0 0
0.28125 0.03125 0
0.3125 0.03125 0
0.25 0.03125 0
0.28125 0.03125 0
0.25 0.0625 0
0.28125 0.0625 0
0.28125 0.03125 0
0.3125 0.03125 0
0.28125 0.0625 0
0.3125 0.0625 0
0.3125 0 0
0.34375 0 0
0.3125 0.03125 0
0.34375 0.03125 0
0.34375 0 0
0.375 0 0
0.34375 0.03125 0
0.375 0.03125 0
0.3125 0.03125 0
0.34375 0.03125 0
0.3125 0.0625 0
0.34375 0.0625 0
0.34375 0.03125 0
0.375 0.03125 0
0.34375 0.0625 0
0.375 0.0625 0
0.25 0.0625 0
0.28125 0.0625 0
0.25 0.09375 0
0.28125 0.09375 0
0.28125 0.0625 0
0.3125 0.0625 0
0.28125 0.09375 0
0.3125 0.09375 0
0.25 0.09375 0
0.28125 0.09375 0
0.25 0.125 0
0.28125 0.125 0
0.28125 0.09375 0
0.3125 0.09375 0
0.28125 0.125 0
0.3125 0.125 0
0.3125 0.0625 0
0.34375 0.0625 0
0.3125 0.09375 0
0.34375 0.09375 0
0.34375 0.0625 0
0.375 0.0625 0
0.34375 0.09375 0
0.375 0.09375 0
0.3125 0.09375 0
0.34375 0.09375 0
0.3125 0.125 0
0.34375 0.125 0
0.34375 0.09375 0
0.375 0.09375 0
0.34375 0.125 0
0.375 0.125 0
0.375 0 0
0.40625 0 0
0.375 0.03125 0
0.40625 0.03125 0
0.40625 0 0
0.4375 0 0
0.40625 0.03125 0
0.4375 0.03125 0
0.375 0.03125 0
0.40625 0.03125 0
0.375 0.0625 0
0.40625 0.0625 0
0.40625 0.03125 0
0.4375 0.03125 0
0.40625 0.0625 0
0.4375 0.0625 0
0.4375 0 0
0.46875 0 0
0.4375 0.03125 0
0.46875 0.03125 0
0.46875 0 0
0.5 0 0
0.46875 0.03125 0
0.5 0.03125 0
0.4375 0.03125 0
0.46875 0.03125 0
0.4375 0.0625 0
0.46875 0.0625 0
0.46875 0.03125 0
0.5 0.03125 0
0.46875 0.0625 0
0.5 0.0625 0
0.375 0.0625 0
0.40625 0.0625 0
0.375 0.09375 0
0.40625 0.09375 0
0.40625 0.0625 0
0.4375 0.0625 0
0.40625 0.09375 0
0.4375 0.09375 0
0.375 0.09375 0
0.40625 0.09375 0
0.375 0.125 0
0.40625 0.125 0
0.40625 0.09375 0
0.4375 0.09375 0
0.40625 0.125 0
0.4375 0.125 0
0.4375 0.0625 0
0.46875 0.0625 0
0.4375 0.09375 0
0.46875 0.09375 0
0.46875 0.0625 0
0.5 0.0625 0
0.46875 0.09375 0
0.5 0.09375 0
0.4375 0.09375 0
0.46875 0.09375 0
0.4375 0.125 0
0.46875 0.125 0
0.46875 0.09375 0
0.5 0.09375 0
0.46875 0.125 0
0.5 0.125 0
0.25 0.125 0
0.28125 0.125 0
0.25 0.15625 0
0.28125 0.15625 0
0.28125 0.125 0
0.3125 0.125 0
0.28125 0.15625 0
0.3125 0.15625 0
0.25 0.15625 0
0.28125 0.15625 0
0.25 0.1875 0
0.28125 0.1875 0
0.28125 0.15625 0
0.3125 0.15625 0
0.28125 0.1875 0
0.3125 0.1875 0
0.3125 0.125 0
0.34375 0.125 0
0.3125 0.15625 0
0.34375 0.15625 0
0.34375 0.125 0
0.375 0.125 0
0.34375 0.15625 0
0.375 0.15625 0
0.3125 0.15625 0
0.34375 0.15625 0
0.3125 0.1875 0
0.34375 0.1875 0
0.34375 0.15625 0
0.375 0.15625 0
0.34375 0.1875 0
0.375 0.1875 0
0.25 0.1875 0
0.28125 0.1875 0
0.25 0.21875 0
0.28125 0.21875 0
0.28125 0.1875 0
0.3125 0.1875 0
0.28125 0.21875 0
0.3125 0.21875 0
0.25 0.21875 0
0.28125 0.21875 0
0.25 0.25 0
0.28125 0.25 0
0.28125 0.21875 0
0.3125 0.21875 0
0.28125 0.25 0
0.3125 0.25 0
0.3125 0.1875 0
0.34375 0.1875 0
0.3125 0.21875 0
0.34375 0.21875 0
0.34375 0.1875 0
0.375 0.1875 0
0.34375 0.21875 0
0.375 0.21875 0
0.3125 0.21875 0
0.34375 0.21875 0
0.3125 0.25 0
0.34375 0.25 0
0.34375 0.21875 0
0.375 0.21875 0
0.34375 0.25 0
0.375 0.25 0
0.375 0.125 0
0.40625 0.125 0
0.375 0.15625 0
0.40625 0.15625 0
0.40625 0.125 0
0.4375 0.125 0
0.40625 0.15625 0
0.4375 0.15625 0
0.375 0.15625 0
0.40625 0.15625 0
0.375 0.1875 0
0.40625 0.1875 0
0.40625 0.15625 0
0.4375 0.15625 0
0.40625 0.1875 0
0.4375 0.1875 0
0.4375 0.125 0
0.46875 0.125 0
0.4375 0.15625 0
0.46875 0.15625 0
0.46875 0.125 0
0.5 0.125 0
0.46875 0.15625 0
0.5 0.15625 0
0.4375 0.15625 0
0.46875 0.15625 0
0.4375 0.1875 0
0.46875 0.1875 0
0.46875 0.15625 0
0.5 0.15625 0
0.46875 0.1875 0
0.5 0.1875 0
0.375 0.1875 0
0.40625 0.1875 0
0.375 0.21875 0
0.40625 0.21875 0
0.40625 0.1875 0
0.4375 0.1875 0
0.40625 0.21875 0
0.4375 0.21875 0
0.375 0.21875 0
0.40625 0.21875 0
0.375 0.25 0
0.40625 0.25 0
0.40625 0.21875 0
0.4375 0.21875 0
0.40625 0.25 0
0.4375 0.25 0
0.4375 0.1875 0
0.46875 0.1875 0
0.4375 0.21875 0
0.46875 0.21875 0
0.46875 0.1875 0
0.5 0.1875 0
0.46875 0.21875 0
0.5 0.21875 0
0.4375 0.21875 0
0.46875 0.21875 0
0.4375 0.25 0
0.46875 0.25 0
0.46875 0.21875 0
0.5 0.21875 0
0.46875 0.25 0
0.5 0.25 0
0 0.25 0
0.03125 0.25 0
0 0.28125 0
0.03125 0.28125 0
0.03125 0.25 0
0.0625 0.25 0
0.03125 0.28125 0
0.0625 0.28125 0
0 0.28125 0
0.03125 0.28125 0
0 0.3125 0
0.03125 0.3125 0
0.03125 0.28125 0
0.0625 0.28125 0
0.03125 0.3125 0
0.0625 0.3125 0
0.0625 0.25 0
0.09375 0.25 0
0.0625 0.28125 0
0.09375 0.28125 0
0.09375 0.25 0
0.125 0.25 0
0.09375 0.28125 0
0.125 0.28125 0
0.0625 0.28125 0
0.09375 0.28125 0
0.0625 0.3125 0
0.09375 0.3125 0
0.09375 0.28125 0
0.125 0.28125 0
0.09375 0.3125 0
0.125 0.3125 0
0 0.3125 0
0.03125 0.3125 0
0 0.34375 0
0.03125 0.34375 0
0.03125 0.3125 0
0.0625 0.3125 0
0.03125 0.34375 0
0.0625 0.34375 0
0 0.34375 0
0.03125 0.34375 0
0 0.375 0
0.03125 0.375 0
0.03125 0.34375 0
0.0625 0.34375 0
0.03125 0.375 0
0.0625 0.375 0
0.0625 0.3125 0
0.09375 0.3125 0
0.0625 0.34375 0
0.09375 0.34375 0
0.09375 0.3125 0
0.125 0.3125 0
0.09375 0.34375 0
0.125 0.34375 0
0.0625 0.34375 0
0.09375 0.34375 0
0.0625 0.375 0
0.09375 0.375 0
0.09375 0.34375 0
0.125 0.34375 0
0.09375 0.375 0
0.125 0.375 0
0.125 0.25 0
0.15625 0.25 0
0.125 0.28125 0
0.15625 0.28125 0
0.15625 0.25 0
0.1875 0.25 0
0.15625 0.28125 0
0.1875 0.28125 0
0.125 0.28125 0
0.15625 0.28125 0
0.125 0.3125 0
0.15625 0.3125 0
0.15625 0.28125 0
0.1875 0.28125 0
0.15625 0.3125 0
0.1875 0.3125 0
0.1875 0.25 0
0.21875 0.25 0
0.1875 0.28125 0
0.21875 0.28125 0
0.21875 0.25 0
0.25 0.25 0
0.21875 0.28125 0
0.25 0.28125 0
0.1875 0.28125 0
0.21875 0.28125 0
0.1875 0.3125 0
0.21875 0.3125 0
0.21875 0.28125 0
0.25 0.28125 0
0.21875 0.3125 0
0.25 0.3125 0
0.125 0.3125 0
0.15625 0.3125 0
0.125 0.34375 0
0.15625 0.34375 0
0.15625 0.3125 0
0.1875 0.3125 0
0.15625 0.34375 0
0.1875 0.34375 0
0.125 0.34375 0
[...]
POINT_DATA 4096
SCALARS u_x double 1
LOOKUP_TABLE default
2.52476e-05 1.57576e-05 -2.88981e-05 -0.000115339 1.57576e-05 1.82328e-05 -0.000115339 -0.00056828 -2.88981e-05 -0.000115339 -0.000145937 -0.000302784 -0.000115339 -0.00056828 -0.000302784 -0.00118886 1.82328e-05 8.66445e-06 -0.00056828 -0.00129588 8.66445e-06 -5.56755e-06 -0.00129588 -0.00220674 -0.00056828 -0.00129588 -0.00118886 -0.00246506 -0.00129588 -0.00220674 -0.00246506 -0.00401076 -0.000145937 -0.000302784 -0.000231904 -0.000444678 -0.000302784 -0.00118886 -0.000444678 -0.00166678 -0.000231904 -0.000444678 -0.000245473 -0.000541183 -0.000444678 -0.00166678 -0.000541183 -0.00199026 -0.00118886 -0.00246506 -0.00166678 -0.00334999 -0.00246506 -0.00401076 -0.00334999 -0.00534147 -0.00166678 -0.00334999 -0.00199026 -0.00396563 -0.00334999 -0.00534147 -0.00396563 -0.00627171 -5.56755e-06 -2.06806e-05 -0.00220674 -0.00320123 -2.06806e-05 -3.51873e-05 -0.00320123 -0.00421038 -0.00220674 -0.00320123 -0.00401076 -0.00568286 -0.00320123 -0.00421038 -0.00568286 -0.00737866 -3.51873e-05 -4.86841e-05 -0.00421038 -0.00519045 -4.86841e-05 -6.11158e-05 -0.00519045 -0.00611504 -0.00421038 -0.00519045 -0.00737866 -0.00902801 -0.00519045 -0.00611504 -0.00902801 -0.0105858 -0.00401076 -0.00568286 -0.00534147 -0.00747286 -0.00568286 -0.00737866 -0.00747286 -0.00962607 -0.00534147 -0.00747286 -0.00627171 -0.00872045 -0.00747286 -0.00962607 -0.00872045 -0.0111836 -0.00737866 -0.00902801 -0.00962607 -0.011718 -0.00902801 -0.0105858 -0.011718 -0.0136934 -0.00962607 -0.011718 -0.0111836 -0.0135717 -0.011718 -0.0136934 -0.0135717 -0.0158244 -0.000245473 -0.000541183 -0.000172668 -0.000613719 -0.000541183 -0.00199026 -0.000613719 -0.00220673 -0.000172668 -0.000613719 -9.99466e-06 -0.000681709 -0.000613719 -0.00220673 -0.000681709 -0.00236874 -0.00199026 -0.00396563 -0.00220673 -0.00439694 -0.00396563 -0.00627171 -0.00439694 -0.00693535 -0.00220673 -0.00439694 -0.00236874 -0.00473527 -0.00439694 -0.00693535 -0.00473527 -0.00746526 -9.99466e-06 -0.000681709 0.000243666 -0.000758334 -0.000681709 -0.00236874 -0.000758334 -0.00251592 0.000243666 -0.000758334 0.0005902 -0.00085159 -0.000758334 -0.00251592 -0.00085159 -0.00267342 -0.00236874 -0.00473527 -0.00251592 -0.00505183 -0.00473527 -0.00746526 -0.00505183 -0.00796475 -0.00251592 -0.00505183 -0.00267342 -0.00539359 -0.00505183 -0.00796475 -0.00539359 -0.00850295 -0.00627171 -0.00872045 -0.00693535 -0.00961896 -0.00872045 -0.0111836 -0.00961896 -0.0123093 -0.00693535 -0.00961896 -0.00746526 -0.010346 -0.00961896 -0.0123093 -0.010346 -0.0132274 -0.0111836 -0.0135717 -0.0123093 -0.0149121 -0.0135717 -0.0158244 -0.0149121 -0.0173643 -0.0123093 -0.0149121 -0.0132274 -0.0160105 -0.0149121 -0.0173643 -0.0160105 -0.0186295 -0.00746526 -0.010346 -0.00796475 -0.011037 -0.010346 -0.0132274 -0.011037 -0.0141054 -0.00796475 -0.011037 -0.00850295 -0.0117825 -0.011037 -0.0141054 -0.0117825 -0.0150541 -0.0132274 -0.0160105 -0.0141054 -0.0170655 -0.0160105 -0.0186295 -0.0170655 -0.0198483 -0.0141054 -0.0170655 -0.0150541 -0.018207 -0.0170655 -0.0198483 -0.018207 -0.0211682 -6.11158e-05 -7.24992e-05 -0.00611504 -0.00696744 -7.24992e-05 -8.28204e-05 -0.00696744 -0.00773586 -0.00611504 -0.00696744 -0.0105858 -0.0120224 -0.00696744 -0.00773586 -0.0120224 -0.0133166 -8.28204e-05 -9.20202e-05 -0.00773586 -0.00841086 -9.20202e-05 -0.00010001 -0.00841086 -0.00898429 -0.00773586 -0.00841086 -0.0133166 -0.0144517 -0.00841086 -0.00898429 -0.0144517 -0.0154138 -0.0105858 -0.0120224 -0.0136934 -0.0155145 -0.0120224 -0.0133166 -0.0155145 -0.0171539 -0.0136934 -0.0155145 -0.0158244 -0.0178997 -0.0155145 -0.0171539 -0.0178997 -0.0197669 -0.0133166 -0.0144517 -0.0171539 -0.0185903 -0.0144517 -0.0154138 -0.0185903 -0.0198057 -0.0171539 -0.0185903 -0.0197669 -0.0214016 -0.0185903 -0.0198057 -0.0214016 -0.0227837 -0.00010001 -0.000106689 -0.00898429 -0.00944897 -0.000106689 -0.000111949 -0.00944897 -0.00979865 -0.00898429 -0.00944897 -0.0154138 -0.0161908 -0.00944897 -0.00979865 -0.0161908 -0.0167726 -0.000111949 -0.000115685 -0.00979865 -0.0100281 -0.000115685 -0.0001178 -0.0100281 -0.0101332 -0.00979865 -0.0100281 -0.0167726 -0.0171507 -0.0100281 -0.0101332 -0.0171507 -0.0173188 -0.0154138 -0.0161908 -0.0198057 -0.0207851 -0.0161908 -0.0167726 -0.0207851 -0.021516 -0.0198057 -0.0207851 -0.0227837 -0.0238963 -0.0207851 -0.021516 -0.0238963 -0.0247254 -0.0167726 -0.0171507 -0.021516 -0.021988 -0.0171507 -0.0173188 -0.021988 -0.0221935 -0.021516 -0.021988 -0.0247254 -0.0252597 -0.021988 -0.0221935 -0.0252597 -0.0254905 -0.0158244 -0.0178997 -0.0173643 -0.0196217 -0.0178997 -0.0197669 -0.0196217 -0.0216517 -0.0173643 -0.0196217 -0.0186295 -0.0210388 -0.0196217 -0.0216517 -0.0210388 -0.0232046 -0.0197669 -0.0214016 -0.0216517 -0.0234284 -0.0214016 -0.0227837 -0.0234284 -0.0249304 -0.0216517 -0.0234284 -0.0232046 -0.0251003 -0.0234284 -0.0249304 -0.0251003 -0.0267038 -0.0186295 -0.0210388 -0.0198483 -0.0224066 -0.0210388 -0.0232046 -0.0224066 -0.024706 -0.0198483 -0.0224066 -0.0211682 -0.023889 -0.0224066 -0.024706 -0.023889 -0.0263341 -0.0232046 -0.0251003 -0.024706 -0.0267193 -0.0251003 -0.0267038 -0.0267193 -0.0284238 -0.024706 -0.0267193 -0.0263341 -0.0284757 -0.0267193 -0.0284238 -0.0284757 -0.0302914 -0.0227837 -0.0238963 -0.0249304 -0.0261398 -0.0238963 -0.0247254 -0.0261398 -0.0270415 -0.0249304 -0.0261398 -0.0267038 -0.0279964 -0.0261398 -0.0270415 -0.0279964 -0.0289626 -0.0247254 -0.0252597 -0.0270415 -0.0276236 -0.0252597 -0.0254905 -0.0276236 -0.0278768 -0.0270415 -0.0276236 -0.0289626 -0.0295898 -0.0276236 -0.0278768 -0.0295898 -0.0298681 -0.0267038 -0.0279964 -0.0284238 -0.0298008 -0.0279964 -0.0289626 -0.0298008 -0.0308342 -0.0284238 -0.0298008 -0.0302914 -0.0317619 -0.0298008 -0.0308342 -0.0317619 -0.0328712 -0.0289626 -0.0295898 -0.0308342 -0.0315108 -0.0295898 -0.0298681 -0.0315108 -0.0318201 -0.0308342 -0.0315108 -0.0328712 -0.0336056 -0.0315108 -0.0318201 -0.0336056 -0.0339537 0.0005902 -0.00085159 0.00103334 -0.000966212 -0.00085159 -0.00267342 -0.000966212 -0.0028558 0.00103334 -0.000966212 0.00157885 -0.00110539 -0.000966212 -0.0028558 -0.00110539 -0.0030717 -0.00267342 -0.00539359 -0.0028558 -0.00578897 -0.00539359 -0.00850295 -0.00578897 -0.0091225 -0.0028558 -0.00578897 -0.0030717 -0.00625558 -0.00578897 -0.0091225 -0.00625558 -0.00985027 0.00157885 -0.00110539 0.0022345 -0.00127192 -0.00110539 -0.0030717 -0.00127192 -0.00332738 0.0022345 -0.00127192 0.00301004 -0.00146893 -0.00127192 -0.00332738 -0.00146893 -0.00362903 -0.0030717 -0.00625558 -0.00332738 -0.00680649 -0.00625558 -0.00985027 -0.00680649 -0.0107062 -0.00332738 -0.00680649 -0.00362903 -0.00745446 -0.00680649 -0.0107062 -0.00745446 -0.0117096 -0.00850295 -0.0117825 -0.0091225 -0.0126386 -0.0117825 -0.0150541 -0.0126386 -0.016142 -0.0091225 -0.0126386 -0.00985027 -0.0136409 -0.0126386 -0.016142 -0.0136409 -0.0174122 -0.0150541 -0.018207 -0.016142 -0.0195144 -0.018207 -0.0211682 -0.0195144 -0.0226787 -0.016142 -0.0195144 -0.0174122 -0.0210374 -0.0195144 -0.0226787 -0.0210374 -0.0244345 -0.00985027 -0.0136409 -0.0107062 -0.0148158 -0.0136409 -0.0174122 -0.0148158 -0.0188962 -0.0107062 -0.0148158 -0.0117096 -0.016188 -0.0148158 -0.0188962 -0.016188 -0.0206234 -0.0174122 -0.0210374 -0.0188962 -0.0228114 -0.0210374 -0.0244345 -0.0228114 -0.0264738 -0.0188962 -0.0228114 -0.0206234 -0.0248687 -0.0228114 -0.0264738 -0.0248687 -0.0288304 0.00301004 -0.00146893 0.00391722 -0.00170026 -0.00146893 -0.00362903 -0.00170026 -0.00398412 0.00391722 -0.00170026 0.00497014 -0.00197084 -0.00170026 -0.00398412 -0.00197084 -0.00440251 -0.00362903 -0.00745446 -0.00398412 -0.00821462 -0.00745446 -0.0117096 -0.00821462 -0.0128826 -0.00398412 -0.00821462 -0.00440251 -0.00910647 -0.00821462 -0.0128826 -0.00910647 -0.0142535 0.00497014 -0.00197084 0.00618556 -0.00228706 -0.00197084 -0.00440251 -0.00228706 -0.0048976 0.00618556 -0.00228706 0.00758341 -0.00265735 -0.00228706 -0.0048976 -0.00265735 -0.00548788 -0.00440251 -0.00910647 -0.0048976 -0.010156 -0.00910647 -0.0142535 -0.010156 -0.0158594 -0.0048976 -0.010156 -0.00548788 -0.0113986 -0.010156 -0.0158594 -0.0113986 -0.0177502 -0.0117096 -0.016188 -0.0128826 -0.0177861 -0.016188 -0.0206234 -0.0177861 -0.0226264 -0.0128826 -0.0177861 -0.0142535 -0.0196453 -0.0177861 -0.0226264 -0.0196453 -0.0249451 -0.0206234 -0.0248687 -0.0226264 -0.0272442 -0.0248687 -0.0288304 -0.0272442 -0.0315397 -0.0226264 -0.0272442 -0.0249451 -0.0299797 -0.0272442 -0.0315397 -0.0299797 -0.0346431 -0.0142535 -0.0196453 -0.0158594 -0.0218113 -0.0196453 -0.0249451 -0.0218113 -0.0276301 -0.0158594 -0.0218113 -0.0177502 -0.0243443 -0.0218113 -0.0276301 -0.0243443 -0.0307468 -0.0249451 -0.0299797 -0.0276301 -0.0331273 -0.0299797 -0.0346431 -0.0331273 -0.0381909 -0.0276301 -0.0331273 -0.0307468 -0.0367524 -0.0331273 -0.0381909 -0.0367524 -0.0422445 -0.0211682 -0.023889 -0.0226787 -0.025584 -0.023889 -0.0263341 -0.025584 -0.028194 -0.0226787 -0.025584 -0.0244345 -0.0275503 -0.025584 -0.028194 -0.0275503 -0.0303482 -0.0263341 -0.0284757 -0.028194 -0.0304812 -0.0284757 -0.0302914 -0.0304812 -0.032423 -0.028194 -0.0304812 -0.0303482 -0.0328006 -0.0304812 -0.032423 -0.0328006 -0.0348857 -0.0244345 -0.0275503 -0.0264738 -0.0298282 -0.0275503 -0.0303482 -0.0298282 -0.0328376 -0.0264738 -0.0298282 -0.0288304 -0.0324515 -0.0298282 -0.0328376 -0.0324515 -0.0356955 -0.0303482 -0.0328006 -0.0328376 -0.0354754 -0.0328006 -0.0348857 -0.0354754 -0.037721 -0.0328376 -0.0354754 -0.0356955 -0.0385377 -0.0354754 -0.037721 -0.0385377 -0.0409602 -0.0302914 -0.0317619 -0.032423 -0.0340006 -0.0317619 -0.0328712 -0.0340006 -0.0351977 -0.032423 -0.0340006 -0.0348857 -0.0365853 -0.0340006 -0.0351977 -0.0365853 -0.0378836 -0.0328712 -0.0336056 -0.0351977 -0.0360005 -0.0336056 -0.0339537 -0.0360005 -0.0363967 -0.0351977 -0.0360005 -0.0378836 -0.0387666 -0.0360005 -0.0363967 -0.0387666 -0.0392215 -0.0348857 -0.0365853 -0.037721 -0.0395578 -0.0365853 -0.0378836 -0.0395578 -0.0409711 -0.037721 -0.0395578 -0.0409602 -0.0429485 -0.0395578 -0.0409711 -0.0429485 -0.0444901 -0.0378836 -0.0387666 -0.0409711 -0.0419471 -0.0387666 -0.0392215 -0.0419471 -0.0424726 -0.0409711 -0.0419471 -0.0444901 -0.0455724 -0.0419471 -0.0424726 -0.0455724 -0.0461821 -0.0288304 -0.0324515 -0.0315397 -0.0354548 -0.0324515 -0.0356955 -0.0354548 -0.0389547 -0.0315397 -0.0354548 -0.0346431 -0.0388772 -0.0354548 -0.0389547 -0.0388772 -0.0426507 -0.0356955 -0.0385377 -0.0389547 -0.042018 -0.0385377 -0.0409602 -0.042018 -0.0446309 -0.0389547 -0.042018 -0.0426507 -0.0459476 -0.042018 -0.0446309 -0.0459476 -0.0487605 -0.0346431 -0.0388772 -0.0381909 -0.0427647 -0.0388772 -0.0426507 -0.0427647 -0.0468236 -0.0381909 -0.0427647 -0.0422445 -0.0471718 -0.0427647 -0.0468236 -0.0471718 -0.0515194 -0.0426507 -0.0459476 -0.0468236 -0.0503603 -0.0459476 -0.0487605 -0.0503603 -0.0533763 -0.0468236 -0.0503603 -0.0515194 -0.0552923 -0.0503603 -0.0533763 -0.0552923 -0.0585056 -0.0409602 -0.0429485 -0.0446309 -0.046783 -0.0429485 -0.0444901 -0.046783 -0.0484651 -0.0446309 -0.046783 -0.0487605 -0.0510851 -0.046783 -0.0484651 -0.0510851 -0.0529177 -0.0444901 -0.0455724 -0.0484651 -0.0496671 -0.0455724 -0.0461821 -0.0496671 -0.0503761 -0.0484651 -0.0496671 -0.0529177 -0.0542519 -0.0496671 -0.0503761 -0.0542519 -0.0550767 -0.0487605 -0.0510851 -0.0533763 -0.0558768 -0.0510851 -0.0529177 -0.0558768 -0.0578657 -0.0533763 -0.0558768 -0.0585056 -0.0611772 -0.0558768 -0.0578657 -0.0611772 -0.0633223 -0.0529177 -0.0542519 -0.0578657 -0.059343 -0.0542519 -0.0550767 -0.059343 -0.0603008 -0.0578657 -0.059343 -0.0633223 -0.0649497 -0.059343 -0.0603008 -0.0649497 -0.0660575 -0.0001178 -0.000118213 -0.0101332 -0.010111 -0.000118213 -0.000116863 -0.010111 -0.00995997 -0.0101332 -0.010111 -0.0173188 -0.0172724 -0.010111 -0.00995997 -0.0172724 -0.0170093 -0.000116863 -0.000113708 -0.00995997 -0.00967998 -0.000113708 -0.00010873 -0.00967998 -0.00927247 -0.00995997 -0.00967998 -0.0170093 -0.0165298 -0.00967998 -0.00927247 -0.0165298 -0.0158368 -0.0173188 -0.0172724 -0.0221935 -0.0221273 -0.0172724 -0.0170093 -0.0221273 -0.021787 -0.0221935 -0.0221273 -0.0254905 -0.0254122 -0.0221273 -0.021787 -0.0254122 -0.0250223 -0.0170093 -0.0165298 -0.021787 -0.0211732 -0.0165298 -0.0158368 -0.0211732 -0.0202899 -0.021787 -0.0211732 -0.0250223 -0.0243215 -0.0211732 -0.0202899 -0.0243215 -0.0233141 -0.00010873 -0.00010194 -0.00927247 -0.00874052 -0.00010194 -9.33689e-05 -0.00874052 -0.00808902 -0.00927247 -0.00874052 -0.0158368 -0.0149358 -0.00874052 -0.00808902 -0.0149358 -0.0138355 -9.33689e-05 -8.30593e-05 -0.00808902 -0.00732484 -8.30593e-05 -7.1068e-05 -0.00732484 -0.00645737 -0.00808902 -0.00732484 -0.0138355 -0.012548 -0.00732484 -0.00645737 -0.012548 -0.0110899 -0.0158368 -0.0149358 -0.0202899 -0.0191444 -0.0149358 -0.0138355 -0.0191444 -0.0177477 -0.0202899 -0.0191444 -0.0233141 -0.0220083 -0.0191444 -0.0177477 -0.0220083 -0.0204168 -0.0138355 -0.012548 -0.0177477 -0.0161157 -0.012548 -0.0110899 -0.0161157 -0.0142698 -0.0177477 -0.0161157 -0.0204168 -0.0185572 -0.0161157 -0.0142698 -0.0185572 -0.0164539 -0.0254905 -0.0254122 -0.0278768 -0.027795 -0.0254122 -0.0250223 -0.027795 -0.027375 -0.0278768 -0.027795 -0.0298681 -0.0297906 -0.027795 -0.027375 -0.0297906 -0.0293535 -0.0250223 -0.0243215 -0.027375 -0.0266175 -0.0243215 -0.0233141 -0.0266175 -0.0255264 -0.027375 -0.0266175 -0.0293535 -0.0285565 -0.0266175 -0.0255264 -0.0285565 -0.0274029 -0.0298681 -0.0297906 -0.0318201 -0.0317542 -0.0297906 -0.0293535 -0.0317542 -0.0313083 -0.0318201 -0.0317542 -0.0339537 -0.0339066 -0.0317542 -0.0313083 -0.0339066 -0.0334578 -0.0293535 -0.0285565 -0.0313083 -0.0304806 -0.0285565 -0.0274029 -0.0304806 -0.0292732 -0.0313083 -0.0304806 -0.0334578 -0.0326038 -0.0304806 -0.0292732 -0.0326038 -0.0313445 -0.0233141 -0.0220083 -0.0255264 -0.0241101 -0.0220083 -0.0204168 -0.0241101 -0.0223818 -0.0255264 -0.0241101 -0.0274029 -0.0259005 -0.0241101 -0.0223818 -0.0259005 -0.0240621 -0.0204168 -0.0185572 -0.0223818 -0.0203601 -0.0185572 -0.0164539 -0.0203601 -0.0180707 -0.0223818 -0.0203601 -0.0240621 -0.0219065 -0.0203601 -0.0180707 -0.0219065 -0.0194599 -0.0274029 -0.0259005 -0.0292732 -0.0276925 -0.0259005 -0.0240621 -0.0276925 -0.0257503 -0.0292732 -0.0276925 -0.0313445 -0.0296843 -0.0276925 -0.0257503 -0.0296843 -0.0276332 -0.0240621 -0.0219065 -0.0257503 -0.0234647 -0.0219065 -0.0194599 -0.0234647 -0.0208624 -0.0257503 -0.0234647 -0.0276332 -0.0252079 -0.0234647 -0.0208624 -0.0252079 -0.022435 -7.1068e-05 -5.74404e-05 -0.00645737 -0.00549996 -5.74404e-05 -4.23571e-05 -0.00549996 -0.00447196 -0.00645737 -0.00549996 -0.0110899 -0.00948468 -0.00549996 -0.00447196 -0.00948468 -0.00776605 -4.23571e-05 -2.56278e-05 -0.00447196 -0.00340747 -2.56278e-05 -9.9458e-06 -0.00340747 -0.00234214 -0.00447196 -0.00340747 -0.00776605 -0.00598895 -0.00340747 -0.00234214 -0.00598895 -0.00421599 -0.0110899 -0.00948468 -0.0142698 -0.0122399 -0.00948468 -0.00776605 -0.0122399 -0.0100684 -0.0142698 -0.0122399 -0.0164539 -0.0141405 -0.0122399 -0.0100684 -0.0141405 -0.0116643 -0.00776605 -0.00598895 -0.0100684 -0.00782153 -0.00598895 -0.00421599 -0.00782153 -0.00557652 -0.0100684 -0.00782153 -0.0116643 -0.00909758 -0.00782153 -0.00557652 -0.00909758 -0.00652537 -9.9458e-06 5.76312e-06 -0.00234214 -0.00142822 5.76312e-06 6.2118e-05 -0.00142822 -0.00032865 -0.00234214 -0.00142822 -0.00421599 -0.00264877 -0.00142822 -0.00032865 -0.00264877 -0.000943806 6.2118e-05 -2.36635e-05 -0.00032865 -0.0014361 -2.36635e-05 0.0111965 -0.0014361 0.00994749 -0.00032865 -0.0014361 -0.000943806 -0.00169429 -0.0014361 0.00994749 -0.00169429 0.0104137 -0.00421599 -0.00264877 -0.00557652 -0.00355358 -0.00264877 -0.000943806 -0.00355358 -0.00142744 -0.00557652 -0.00355358 -0.00652537 -0.0041795 -0.00355358 -0.00142744 -0.0041795 -0.00175567 -0.000943806 -0.00169429 -0.00142744 -0.00186871 -0.00169429 0.0104137 -0.00186871 0.0102959 -0.00142744 -0.00186871 -0.00175567 -0.00196676 -0.00186871 0.0102959 -0.00196676 0.0102739 -0.0164539 -0.0141405 -0.0180707 -0.0155495 -0.0141405 -0.0116643 -0.0155495 -0.0128466 -0.0180707 -0.0155495 -0.0194599 -0.0167597 -0.0155495 -0.0128466 -0.0167597 -0.0138587 -0.0116643 -0.00909758 -0.0128466 -0.0100385 -0.00909758 -0.00652537 -0.0100385 -0.00721684 -0.0128466 -0.0100385 -0.0138587 -0.0108379 -0.0100385 -0.00721684 -0.0108379 -0.00779619 -0.0194599 -0.0167597 -0.0208624 -0.0179818 -0.0167597 -0.0138587 -0.0179818 -0.0148787 -0.0208624 -0.0179818 -0.022435 -0.0193542 -0.0179818 -0.0148787 -0.0193542 -0.0160249 -0.0138587 -0.0108379 -0.0148787 -0.0116399 -0.0108379 -0.00779619 -0.0116399 -0.00837341 -0.0148787 -0.0116399 -0.0160249 -0.0125411 -0.0116399 -0.00837341 -0.0125411 -0.009022 -0.00652537 -0.0041795 -0.00721684 -0.00462551 -0.0041795 -0.00175567 -0.00462551 -0.0019766 -0.00721684 -0.00462551 -0.00779619 -0.00499213 -0.00462551 -0.0019766 -0.00499213 -0.00215036 -0.00175567 -0.00196676 -0.0019766 -0.0020386 -0.00196676 0.0102739 -0.0020386 0.0103499 -0.0019766 -0.0020386 -0.00215036 -0.00210924 -0.0020386 0.0103499 -0.00210924 0.0105119 -0.00779619 -0.00499213 -0.00837341 -0.00535513 -0.00499213 -0.00215036 -0.00535513 -0.00231876 -0.00837341 -0.00535513 -0.009022 -0.00576408 -0.00535513 -0.00231876 -0.00576408 -0.00250792 -0.00215036 -0.00210924 -0.00231876 -0.00219107 -0.00210924 0.0105119 -0.00219107 0.0107629 -0.00231876 -0.00219107 -0.00250792 -0.00229228 -0.00219107 0.0107629 -0.00229228 0.011104 -0.0339537 -0.0339066 -0.0363967 -0.036376 -0.0339066 -0.0334578 -0.036376 -0.03593 -0.0363967 -0.036376 -0.0392215 -0.0392363 -0.036376 -0.03593 -0.0392363 -0.0388002 -0.0334578 -0.0326038 -0.03593 -0.0350527 -0.0326038 -0.0313445 -0.0350527 -0.0337412 -0.03593 -0.0350527 -0.0388002 -0.0379039 -0.0350527 -0.0337412 -0.0379039 -0.0365407 -0.0392215 -0.0392363 -0.0424726 -0.042534 -0.0392363 -0.0388002 -0.042534 -0.0421176 -0.0424726 -0.042534 -0.0461821 -0.046304 -0.042534 -0.0421176 -0.046304 -0.0459209 -0.0388002 -0.0379039 -0.0421176 -0.0412099 -0.0379039 -0.0365407 -0.0412099 -0.0397989 -0.0421176 -0.0412099 -0.0459209 -0.0450142 -0.0412099 -0.0397989 -0.0450142 -0.0435652 -0.0313445 -0.0296843 -0.0337412 -0.0319967 -0.0296843 -0.0276332 -0.0319967 -0.0298265 -0.0337412 -0.0319967 -0.0365407 -0.0347075 -0.0319967 -0.0298265 -0.0347075 -0.0324074 -0.0276332 -0.0252079 -0.0298265 -0.0272452 -0.0252079 -0.022435 -0.0272452 -0.0242784 -0.0298265 -0.0272452 -0.0324074 -0.0296516 -0.0272452 -0.0242784 -0.0296516 -0.0264638 -0.0365407 -0.0347075 -0.0397989 -0.0378759 -0.0347075 -0.0324074 -0.0378759 -0.0354375 -0.0397989 -0.0378759 -0.0435652 -0.0415568 -0.0378759 -0.0354375 -0.0415568 -0.0389771 -0.0324074 -0.0296516 -0.0354375 -0.0324898 -0.0296516 -0.0264638 -0.0324898 -0.0290529 -0.0354375 -0.0324898 -0.0389771 -0.0358239 -0.0324898 -0.0290529 -0.0358239 -0.0321113 -0.0461821 -0.046304 -0.0503761 -0.0505756 -0.046304 -0.0459209 -0.0505756 -0.0502446 -0.0503761 -0.0505756 -0.0550767 -0.0553746 -0.0505756 -0.0502446 -0.0553746 -0.0551208 -0.0459209 -0.0450142 -0.0502446 -0.0493583 -0.0450142 -0.0435652 -0.0493583 -0.0478889 -0.0502446 -0.0493583 -0.0551208 -0.0542829 -0.0493583 -0.0478889 -0.0542829 -0.052822 -0.0550767 -0.0553746 -0.0603008 -0.0607219 -0.0553746 -0.0551208 -0.0607219 -0.0605777 -0.0603008 -0.0607219 -0.0660575 -0.0666303 -0.0607219 -0.0605777 -0.0666303 -0.0666365 -0.0551208 -0.0542829 -0.0605777 -0.0598274 -0.0542829 -0.052822 -0.0598274 -0.0584186 -0.0605777 -0.0598274 -0.0666365 -0.0660263 -0.0598274 -0.0584186 -0.0660263 -0.0647318 -0.0435652 -0.0415568 -0.0478889 -0.0458086 -0.0415568 -0.0389771 -0.0458086 -0.043093 -0.0478889 -0.0458086 -0.052822 -0.0506958 -0.0458086 -0.043093 -0.0506958 -0.0478628 -0.0389771 -0.0358239 -0.043093 -0.0397277 -0.0358239 -0.0321113 -0.0397277 -0.0357169 -0.043093 -0.0397277 -0.0478628 -0.0442905 -0.0397277 -0.0357169 -0.0442905 -0.0399668 -0.052822 -0.0506958 -0.0584186 -0.05629 -0.0506958 -0.0478628 -0.05629 -0.053377 -0.0584186 -0.05629 -0.0647318 -0.0626683 -0.056