# vtk DataFile Version 3.0
#This file was generated by the deal.II library on 2026/1/5 at 14:19:32
ASCII
DATASET UNSTRUCTURED_GRID

POINTS 4096 double
0 0 0
0.03125 0 0
0 0.03125 0
0.03125 0.03125 0
0.03125 0 0
0.0625 0 0
0.03125 0.03125 0
0.0625 0.03125 0
0 0.03125 0
0.03125 0.03125 0
0 0.0625 0
0.03125 0.0625 0
0.03125 0.03125 0
0.0625 0.03125 0
0.03125 0.0625 0
0.0625 0.0625 0
0.0625 0 0
0.09375 0 0
0.0625 0.03125 0
0.09375 0.03125 0
0.09375 0 0
0.125 0 0
0.09375 0.03125 0
0.125 0.03125 0
0.0625 0.03125 0
0.09375 0.03125 0
0.0625 0.0625 0
0.09375 0.0625 0
0.09375 0.03125 0
0.125 0.03125 0
0.09375 0.0625 0
0.125 0.0625 0
0 0.0625 0
0.03125 0.0625 0
0 0.09375 0
0.03125 0.09375 0
0.03125 0.0625 0
0.0625 0.0625 0
0.03125 0.09375 0
0.0625 0.09375 0
0 0.09375 0
0.03125 0.09375 0
0 0.125 0
0.03125 0.125 0
0.03125 0.09375 0
0.0625 0.09375 0
0.03125 0.125 0
0.0625 0.125 0
0.0625 0.0625 0
0.09375 0.0625 0
0.0625 0.09375 0
0.09375 0.09375 0
0.09375 0.0625 0
0.125 0.0625 0
0.09375 0.09375 0
0.125 0.09375 0
0.0625 0.09375 0
0.09375 0.09375 0
0.0625 0.125 0
0.09375 0.125 0
0.09375 0.09375 0
0.125 0.09375 0
0.09375 0.125 0
0.125 0.125 0
0.125 0 0
0.15625 0 0
0.125 0.03125 0
0.15625 0.03125 0
0.15625 0 0
0.1875 0 0
0.15625 0.03125 0
0.1875 0.03125 0
0.125 0.03125 0
0.15625 0.03125 0
0.125 0.0625 0
0.15625 0.0625 0
0.15625 0.03125 0
0.1875 0.03125 0
0.15625 0.0625 0
0.1875 0.0625 0
0.1875 0 0
0.21875 0 0
0.1875 0.03125 0
0.21875 0.03125 0
0.21875 0 0
0.25 0 0
0.21875 0.03125 0
0.25 0.03125 0
0.1875 0.03125 0
0.21875 0.03125 0
0.1875 0.0625 0
0.21875 0.0625 0
0.21875 0.03125 0
0.25 0.03125 0
0.21875 0.0625 0
0.25 0.0625 0
0.125 0.0625 0
0.15625 0.0625 0
0.125 0.09375 0
0.15625 0.09375 0
0.15625 0.0625 0
0.1875 0.0625 0
0.15625 0.09375 0
0.1875 0.09375 0
0.125 0.09375 0
0.15625 0.09375 0
0.125 0.125 0
0.15625 0.125 0
0.15625 0.09375 0
0.1875 0.09375 0
0.15625 0.125 0
0.1875 0.125 0
0.1875 0.0625 0
0.21875 0.0625 0
0.1875 0.09375 0
0.21875 0.09375 0
0.21875 0.0625 0
0.25 0.0625 0
0.21875 0.09375 0
0.25 0.09375 0
0.1875 0.09375 0
0.21875 0.09375 0
0.1875 0.125 0
0.21875 0.125 0
0.21875 0.09375 0
0.25 0.09375 0
0.21875 0.125 0
0.25 0.125 0
0 0.125 0
0.03125 0.125 0
0 0.15625 0
0.03125 0.15625 0
0.03125 0.125 0
0.0625 0.125 0
0.03125 0.15625 0
0.0625 0.15625 0
0 0.15625 0
0.03125 0.15625 0
0 0.1875 0
0.03125 0.1875 0
0.03125 0.15625 0
0.0625 0.15625 0
0.03125 0.1875 0
0.0625 0.1875 0
0.0625 0.125 0
0.09375 0.125 0
0.0625 0.15625 0
0.09375 0.15625 0
0.09375 0.125 0
0.125 0.125 0
0.09375 0.15625 0
0.125 0.15625 0
0.0625 0.15625 0
0.09375 0.15625 0
0.0625 0.1875 0
0.09375 0.1875 0
0.09375 0.15625 0
0.125 0.15625 0
0.09375 0.1875 0
0.125 0.1875 0
0 0.1875 0
0.03125 0.1875 0
0 0.21875 0
0.03125 0.21875 0
0.03125 0.1875 0
0.0625 0.1875 0
0.03125 0.21875 0
0.0625 0.21875 0
0 0.21875 0
0.03125 0.21875 0
0 0.25 0
0.03125 0.25 0
0.03125 0.21875 0
0.0625 0.21875 0
0.03125 0.25 0
0.0625 0.25 0
0.0625 0.1875 0
0.09375 0.1875 0
0.0625 0.21875 0
0.09375 0.21875 0
0.09375 0.1875 0
0.125 0.1875 0
0.09375 0.21875 0
0.125 0.21875 0
0.0625 0.21875 0
0.09375 0.21875 0
0.0625 0.25 0
0.09375 0.25 0
0.09375 0.21875 0
0.125 0.21875 0
0.09375 0.25 0
0.125 0.25 0
0.125 0.125 0
0.15625 0.125 0
0.125 0.15625 0
0.15625 0.15625 0
0.15625 0.125 0
0.1875 0.125 0
0.15625 0.15625 0
0.1875 0.15625 0
0.125 0.15625 0
0.15625 0.15625 0
0.125 0.1875 0
0.15625 0.1875 0
0.15625 0.15625 0
0.1875 0.15625 0
0.15625 0.1875 0
0.1875 0.1875 0
0.1875 0.125 0
0.21875 0.125 0
0.1875 0.15625 0
0.21875 0.15625 0
0.21875 0.125 0
0.25 0.125 0
0.21875 0.15625 0
0.25 0.15625 0
0.1875 0.15625 0
0.21875 0.15625 0
0.1875 0.1875 0
0.21875 0.1875 0
0.21875 0.15625 0
0.25 0.15625 0
0.21875 0.1875 0
0.25 0.1875 0
0.125 0.1875 0
0.15625 0.1875 0
0.125 0.21875 0
0.15625 0.21875 0
0.15625 0.1875 0
0.1875 0.1875 0
0.15625 0.21875 0
0.1875 0.21875 0
0.125 0.21875 0
0.15625 0.21875 0
0.125 0.25 0
0.15625 0.25 0
0.15625 0.21875 0
0.1875 0.21875 0
0.15625 0.25 0
0.1875 0.25 0
0.1875 0.1875 0
0.21875 0.1875 0
0.1875 0.21875 0
0.21875 0.21875 0
0.21875 0.1875 0
0.25 0.1875 0
0.21875 0.21875 0
0.25 0.21875 0
0.1875 0.21875 0
0.21875 0.21875 0
0.1875 0.25 0
0.21875 0.25 0
0.21875 0.21875 0
0.25 0.21875 0
0.21875 0.25 0
0.25 0.25 0
0.25 0 0
0.28125 0 0
0.25 0.03125 0
0.28125 0.03125 0
0.28125 0 0
0.3125 0 0
0.28125 0.03125 0
0.3125 0.03125 0
0.25 0.03125 0
0.28125 0.03125 0
0.25 0.0625 0
0.28125 0.0625 0
0.28125 0.03125 0
0.3125 0.03125 0
0.28125 0.0625 0
0.3125 0.0625 0
0.3125 0 0
0.34375 0 0
0.3125 0.03125 0
0.34375 0.03125 0
0.34375 0 0
0.375 0 0
0.34375 0.03125 0
0.375 0.03125 0
0.3125 0.03125 0
0.34375 0.03125 0
0.3125 0.0625 0
0.34375 0.0625 0
0.34375 0.03125 0
0.375 0.03125 0
0.34375 0.0625 0
0.375 0.0625 0
0.25 0.0625 0
0.28125 0.0625 0
0.25 0.09375 0
0.28125 0.09375 0
0.28125 0.0625 0
0.3125 0.0625 0
0.28125 0.09375 0
0.3125 0.09375 0
0.25 0.09375 0
0.28125 0.09375 0
0.25 0.125 0
0.28125 0.125 0
0.28125 0.09375 0
0.3125 0.09375 0
0.28125 0.125 0
0.3125 0.125 0
0.3125 0.0625 0
0.34375 0.0625 0
0.3125 0.09375 0
0.34375 0.09375 0
0.34375 0.0625 0
0.375 0.0625 0
0.34375 0.09375 0
0.375 0.09375 0
0.3125 0.09375 0
0.34375 0.09375 0
0.3125 0.125 0
0.34375 0.125 0
0.34375 0.09375 0
0.375 0.09375 0
0.34375 0.125 0
0.375 0.125 0
0.375 0 0
0.40625 0 0
0.375 0.03125 0
0.40625 0.03125 0
0.40625 0 0
0.4375 0 0
0.40625 0.03125 0
0.4375 0.03125 0
0.375 0.03125 0
0.40625 0.03125 0
0.375 0.0625 0
0.40625 0.0625 0
0.40625 0.03125 0
0.4375 0.03125 0
0.40625 0.0625 0
0.4375 0.0625 0
0.4375 0 0
0.46875 0 0
0.4375 0.03125 0
0.46875 0.03125 0
0.46875 0 0
0.5 0 0
0.46875 0.03125 0
0.5 0.03125 0
0.4375 0.03125 0
0.46875 0.03125 0
0.4375 0.0625 0
0.46875 0.0625 0
0.46875 0.03125 0
0.5 0.03125 0
0.46875 0.0625 0
0.5 0.0625 0
0.375 0.0625 0
0.40625 0.0625 0
0.375 0.09375 0
0.40625 0.09375 0
0.40625 0.0625 0
0.4375 0.0625 0
0.40625 0.09375 0
0.4375 0.09375 0
0.375 0.09375 0
0.40625 0.09375 0
0.375 0.125 0
0.40625 0.125 0
0.40625 0.09375 0
0.4375 0.09375 0
0.40625 0.125 0
0.4375 0.125 0
0.4375 0.0625 0
0.46875 0.0625 0
0.4375 0.09375 0
0.46875 0.09375 0
0.46875 0.0625 0
0.5 0.0625 0
0.46875 0.09375 0
0.5 0.09375 0
0.4375 0.09375 0
0.46875 0.09375 0
0.4375 0.125 0
0.46875 0.125 0
0.46875 0.09375 0
0.5 0.09375 0
0.46875 0.125 0
0.5 0.125 0
0.25 0.125 0
0.28125 0.125 0
0.25 0.15625 0
0.28125 0.15625 0
0.28125 0.125 0
0.3125 0.125 0
0.28125 0.15625 0
0.3125 0.15625 0
0.25 0.15625 0
0.28125 0.15625 0
0.25 0.1875 0
0.28125 0.1875 0
0.28125 0.15625 0
0.3125 0.15625 0
0.28125 0.1875 0
0.3125 0.1875 0
0.3125 0.125 0
0.34375 0.125 0
0.3125 0.15625 0
0.34375 0.15625 0
0.34375 0.125 0
0.375 0.125 0
0.34375 0.15625 0
0.375 0.15625 0
0.3125 0.15625 0
0.34375 0.15625 0
0.3125 0.1875 0
0.34375 0.1875 0
0.34375 0.15625 0
0.375 0.15625 0
0.34375 0.1875 0
0.375 0.1875 0
0.25 0.1875 0
0.28125 0.1875 0
0.25 0.21875 0
0.28125 0.21875 0
0.28125 0.1875 0
0.3125 0.1875 0
0.28125 0.21875 0
0.3125 0.21875 0
0.25 0.21875 0
0.28125 0.21875 0
0.25 0.25 0
0.28125 0.25 0
0.28125 0.21875 0
0.3125 0.21875 0
0.28125 0.25 0
0.3125 0.25 0
0.3125 0.1875 0
0.34375 0.1875 0
0.3125 0.21875 0
0.34375 0.21875 0
0.34375 0.1875 0
0.375 0.1875 0
0.34375 0.21875 0
0.375 0.21875 0
0.3125 0.21875 0
0.34375 0.21875 0
0.3125 0.25 0
0.34375 0.25 0
0.34375 0.21875 0
0.375 0.21875 0
0.34375 0.25 0
0.375 0.25 0
0.375 0.125 0
0.40625 0.125 0
0.375 0.15625 0
0.40625 0.15625 0
0.40625 0.125 0
0.4375 0.125 0
0.40625 0.15625 0
0.4375 0.15625 0
0.375 0.15625 0
0.40625 0.15625 0
0.375 0.1875 0
0.40625 0.1875 0
0.40625 0.15625 0
0.4375 0.15625 0
0.40625 0.1875 0
0.4375 0.1875 0
0.4375 0.125 0
0.46875 0.125 0
0.4375 0.15625 0
0.46875 0.15625 0
0.46875 0.125 0
0.5 0.125 0
0.46875 0.15625 0
0.5 0.15625 0
0.4375 0.15625 0
0.46875 0.15625 0
0.4375 0.1875 0
0.46875 0.1875 0
0.46875 0.15625 0
0.5 0.15625 0
0.46875 0.1875 0
0.5 0.1875 0
0.375 0.1875 0
0.40625 0.1875 0
0.375 0.21875 0
0.40625 0.21875 0
0.40625 0.1875 0
0.4375 0.1875 0
0.40625 0.21875 0
0.4375 0.21875 0
0.375 0.21875 0
0.40625 0.21875 0
0.375 0.25 0
0.40625 0.25 0
0.40625 0.21875 0
0.4375 0.21875 0
0.40625 0.25 0
0.4375 0.25 0
0.4375 0.1875 0
0.46875 0.1875 0
0.4375 0.21875 0
0.46875 0.21875 0
0.46875 0.1875 0
0.5 0.1875 0
0.46875 0.21875 0
0.5 0.21875 0
0.4375 0.21875 0
0.46875 0.21875 0
0.4375 0.25 0
0.46875 0.25 0
0.46875 0.21875 0
0.5 0.21875 0
0.46875 0.25 0
0.5 0.25 0
0 0.25 0
0.03125 0.25 0
0 0.28125 0
0.03125 0.28125 0
0.03125 0.25 0
0.0625 0.25 0
0.03125 0.28125 0
0.0625 0.28125 0
0 0.28125 0
0.03125 0.28125 0
0 0.3125 0
0.03125 0.3125 0
0.03125 0.28125 0
0.0625 0.28125 0
0.03125 0.3125 0
0.0625 0.3125 0
0.0625 0.25 0
0.09375 0.25 0
0.0625 0.28125 0
0.09375 0.28125 0
0.09375 0.25 0
0.125 0.25 0
0.09375 0.28125 0
0.125 0.28125 0
0.0625 0.28125 0
0.09375 0.28125 0
0.0625 0.3125 0
0.09375 0.3125 0
0.09375 0.28125 0
0.125 0.28125 0
0.09375 0.3125 0
0.125 0.3125 0
0 0.3125 0
0.03125 0.3125 0
0 0.34375 0
0.03125 0.34375 0
0.03125 0.3125 0
0.0625 0.3125 0
0.03125 0.34375 0
0.0625 0.34375 0
0 0.34375 0
0.03125 0.34375 0
0 0.375 0
0.03125 0.375 0
0.03125 0.34375 0
0.0625 0.34375 0
0.03125 0.375 0
0.0625 0.375 0
0.0625 0.3125 0
0.09375 0.3125 0
0.0625 0.34375 0
0.09375 0.34375 0
0.09375 0.3125 0
0.125 0.3125 0
0.09375 0.34375 0
0.125 0.34375 0
0.0625 0.34375 0
0.09375 0.34375 0
0.0625 0.375 0
0.09375 0.375 0
0.09375 0.34375 0
0.125 0.34375 0
0.09375 0.375 0
0.125 0.375 0
0.125 0.25 0
0.15625 0.25 0
0.125 0.28125 0
0.15625 0.28125 0
0.15625 0.25 0
0.1875 0.25 0
0.15625 0.28125 0
0.1875 0.28125 0
0.125 0.28125 0
0.15625 0.28125 0
0.125 0.3125 0
0.15625 0.3125 0
0.15625 0.28125 0
0.1875 0.28125 0
0.15625 0.3125 0
0.1875 0.3125 0
0.1875 0.25 0
0.21875 0.25 0
0.1875 0.28125 0
0.21875 0.28125 0
0.21875 0.25 0
0.25 0.25 0
0.21875 0.28125 0
0.25 0.28125 0
0.1875 0.28125 0
0.21875 0.28125 0
0.1875 0.3125 0
0.21875 0.3125 0
0.21875 0.28125 0
0.25 0.28125 0
0.21875 0.3125 0
0.25 0.3125 0
0.125 0.3125 0
0.15625 0.3125 0
0.125 0.34375 0
0.15625 0.34375 0
0.15625 0.3125 0
0.1875 0.3125 0
0.15625 0.34375 0
0.1875 0.34375 0
0.125 0.34375 0
[...]
POINT_DATA 4096
SCALARS u_x double 1
LOOKUP_TABLE default
1.82077e-05 1.56419e-05 -3.55627e-05 -0.000102096 1.56419e-05 1.94265e-05 -0.000102096 -0.000529356 -3.55627e-05 -0.000102096 -0.000155032 -0.000286283 -0.000102096 -0.000529356 -0.000286283 -0.00114679 1.94265e-05 1.12918e-05 -0.000529356 -0.00123671 1.12918e-05 -1.92228e-06 -0.00123671 -0.00214168 -0.000529356 -0.00123671 -0.00114679 -0.00241031 -0.00123671 -0.00214168 -0.00241031 -0.00396759 -0.000155032 -0.000286283 -0.000252999 -0.000432708 -0.000286283 -0.00114679 -0.000432708 -0.00164622 -0.000252999 -0.000432708 -0.000286034 -0.000536036 -0.000432708 -0.00164622 -0.000536036 -0.00200106 -0.00114679 -0.00241031 -0.00164622 -0.00334054 -0.00241031 -0.00396759 -0.00334054 -0.00537535 -0.00164622 -0.00334054 -0.00200106 -0.00401741 -0.00334054 -0.00537535 -0.00401741 -0.00640335 -1.92228e-06 -1.64014e-05 -0.00214168 -0.00314615 -1.64014e-05 -3.05158e-05 -0.00314615 -0.00417804 -0.00214168 -0.00314615 -0.00396759 -0.00567646 -0.00314615 -0.00417804 -0.00567646 -0.00742919 -3.05158e-05 -4.37335e-05 -0.00417804 -0.00518891 -4.37335e-05 -5.5927e-05 -0.00518891 -0.0061481 -0.00417804 -0.00518891 -0.00742919 -0.00914812 -0.00518891 -0.0061481 -0.00914812 -0.0107812 -0.00396759 -0.00567646 -0.00537535 -0.00758088 -0.00567646 -0.00742919 -0.00758088 -0.00983218 -0.00537535 -0.00758088 -0.00640335 -0.00896623 -0.00758088 -0.00983218 -0.00896623 -0.0115691 -0.00742919 -0.00914812 -0.00983218 -0.0120366 -0.00914812 -0.0107812 -0.0120366 -0.0141301 -0.00983218 -0.0120366 -0.0115691 -0.0141113 -0.0120366 -0.0141301 -0.0141113 -0.0165224 -0.000286034 -0.000536036 -0.000237813 -0.00061411 -0.000536036 -0.00200106 -0.00061411 -0.00224768 -0.000237813 -0.00061411 -0.000103248 -0.000684891 -0.00061411 -0.00224768 -0.000684891 -0.00243337 -0.00200106 -0.00401741 -0.00224768 -0.00450711 -0.00401741 -0.00640335 -0.00450711 -0.00715956 -0.00224768 -0.00450711 -0.00243337 -0.00489184 -0.00450711 -0.00715956 -0.00489184 -0.00776416 -0.000103248 -0.000684891 0.000119448 -0.00076155 -0.000684891 -0.00243337 -0.00076155 -0.00259714 0.000119448 -0.00076155 0.000432129 -0.000852748 -0.00076155 -0.00259714 -0.000852748 -0.00276606 -0.00243337 -0.00489184 -0.00259714 -0.00524167 -0.00489184 -0.00776416 -0.00524167 -0.00831911 -0.00259714 -0.00524167 -0.00276606 -0.005607 -0.00524167 -0.00831911 -0.005607 -0.00889867 -0.00640335 -0.00896623 -0.00715956 -0.00999382 -0.00896623 -0.0115691 -0.00999382 -0.012861 -0.00715956 -0.00999382 -0.00776416 -0.0108259 -0.00999382 -0.012861 -0.0108259 -0.0139151 -0.0115691 -0.0141113 -0.012861 -0.0156545 -0.0141113 -0.0165224 -0.0156545 -0.0183 -0.012861 -0.0156545 -0.0139151 -0.016919 -0.0156545 -0.0183 -0.016919 -0.01976 -0.00776416 -0.0108259 -0.00831911 -0.0115967 -0.0108259 -0.0139151 -0.0115967 -0.0148981 -0.00831911 -0.0115967 -0.00889867 -0.0124038 -0.0115967 -0.0148981 -0.0124038 -0.0159302 -0.0139151 -0.016919 -0.0148981 -0.018104 -0.016919 -0.01976 -0.018104 -0.0211326 -0.0148981 -0.018104 -0.0159302 -0.0193507 -0.018104 -0.0211326 -0.0193507 -0.0225792 -5.5927e-05 -6.70916e-05 -0.0061481 -0.00703592 -6.70916e-05 -7.72202e-05 -0.00703592 -0.00783869 -0.0061481 -0.00703592 -0.0107812 -0.0122933 -0.00703592 -0.00783869 -0.0122933 -0.0136599 -7.72202e-05 -8.627e-05 -0.00783869 -0.00854582 -8.627e-05 -9.41649e-05 -0.00854582 -0.0091484 -0.00783869 -0.00854582 -0.0136599 -0.014862 -0.00854582 -0.0091484 -0.014862 -0.0158838 -0.0107812 -0.0122933 -0.0141301 -0.0160679 -0.0122933 -0.0136599 -0.0160679 -0.0178181 -0.0141301 -0.0160679 -0.0165224 -0.0187526 -0.0160679 -0.0178181 -0.0187526 -0.0207653 -0.0136599 -0.014862 -0.0178181 -0.0193557 -0.014862 -0.0158838 -0.0193557 -0.0206606 -0.0178181 -0.0193557 -0.0207653 -0.0225324 -0.0193557 -0.0206606 -0.0225324 -0.0240306 -9.41649e-05 -0.000100807 -0.0091484 -0.00963858 -0.000100807 -0.000106087 -0.00963858 -0.0100095 -0.0091484 -0.00963858 -0.0158838 -0.0167122 -0.00963858 -0.0100095 -0.0167122 -0.0173357 -0.000106087 -0.000109893 -0.0100095 -0.0102553 -0.000109893 -0.000112122 -0.0102553 -0.0103712 -0.0100095 -0.0102553 -0.0173357 -0.0177447 -0.0102553 -0.0103712 -0.0177447 -0.0179318 -0.0158838 -0.0167122 -0.0206606 -0.0217159 -0.0167122 -0.0173357 -0.0217159 -0.0225073 -0.0206606 -0.0217159 -0.0240306 -0.0252409 -0.0217159 -0.0225073 -0.0252409 -0.0261469 -0.0173357 -0.0177447 -0.0225073 -0.0230229 -0.0177447 -0.0179318 -0.0230229 -0.0232538 -0.0225073 -0.0230229 -0.0261469 -0.0267357 -0.0230229 -0.0232538 -0.0267357 -0.026997 -0.0165224 -0.0187526 -0.0183 -0.0207447 -0.0187526 -0.0207653 -0.0207447 -0.0229499 -0.0183 -0.0207447 -0.01976 -0.0223833 -0.0207447 -0.0229499 -0.0223833 -0.0247488 -0.0207653 -0.0225324 -0.0229499 -0.0248852 -0.0225324 -0.0240306 -0.0248852 -0.0265259 -0.0229499 -0.0248852 -0.0247488 -0.026825 -0.0248852 -0.0265259 -0.026825 -0.0285862 -0.01976 -0.0223833 -0.0211326 -0.0239276 -0.0223833 -0.0247488 -0.0239276 -0.0264475 -0.0211326 -0.0239276 -0.0225792 -0.025557 -0.0239276 -0.0264475 -0.025557 -0.0282418 -0.0247488 -0.026825 -0.0264475 -0.0286602 -0.026825 -0.0285862 -0.0286602 -0.0305396 -0.0264475 -0.0286602 -0.0282418 -0.030601 -0.0286602 -0.0305396 -0.030601 -0.0326082 -0.0240306 -0.0252409 -0.0265259 -0.0278514 -0.0252409 -0.0261469 -0.0278514 -0.0288444 -0.0265259 -0.0278514 -0.0285862 -0.030011 -0.0278514 -0.0288444 -0.030011 -0.0310812 -0.0261469 -0.0267357 -0.0288444 -0.0294907 -0.0267357 -0.026997 -0.0294907 -0.0297792 -0.0288444 -0.0294907 -0.0310812 -0.0317818 -0.0294907 -0.0297792 -0.0317818 -0.0321009 -0.0285862 -0.030011 -0.0305396 -0.0320636 -0.030011 -0.0310812 -0.0320636 -0.0332133 -0.0305396 -0.0320636 -0.0326082 -0.0342408 -0.0320636 -0.0332133 -0.0342408 -0.0354799 -0.0310812 -0.0317818 -0.0332133 -0.0339732 -0.0317818 -0.0321009 -0.0339732 -0.0343302 -0.0332133 -0.0339732 -0.0354799 -0.0363089 -0.0339732 -0.0343302 -0.0363089 -0.0367138 0.000432129 -0.000852748 0.000838119 -0.000963966 -0.000852748 -0.00276606 -0.000963966 -0.00295719 0.000838119 -0.000963966 0.00134264 -0.00109894 -0.000963966 -0.00295719 -0.00109894 -0.00318121 -0.00276606 -0.005607 -0.00295719 -0.00602086 -0.005607 -0.00889867 -0.00602086 -0.00955241 -0.00295719 -0.00602086 -0.00318121 -0.00650472 -0.00602086 -0.00955241 -0.00650472 -0.010313 0.00134264 -0.00109894 0.00195288 -0.00126076 -0.00109894 -0.00318121 -0.00126076 -0.00344569 0.00195288 -0.00126076 0.00267797 -0.00145264 -0.00126076 -0.00344569 -0.00145264 -0.00375751 -0.00318121 -0.00650472 -0.00344569 -0.00707422 -0.00650472 -0.010313 -0.00707422 -0.0112045 -0.00344569 -0.00707422 -0.00375751 -0.00774354 -0.00707422 -0.0112045 -0.00774354 -0.0122482 -0.00889867 -0.0124038 -0.00955241 -0.0133127 -0.0124038 -0.0159302 -0.0133127 -0.0170913 -0.00955241 -0.0133127 -0.010313 -0.0143668 -0.0133127 -0.0170913 -0.0143668 -0.0184342 -0.0159302 -0.0193507 -0.0170913 -0.0207524 -0.0193507 -0.0225792 -0.0207524 -0.0242049 -0.0170913 -0.0207524 -0.0184342 -0.0223702 -0.0207524 -0.0242049 -0.0223702 -0.0260777 -0.010313 -0.0143668 -0.0112045 -0.0155976 -0.0143668 -0.0184342 -0.0155976 -0.0199973 -0.0112045 -0.0155976 -0.0122482 -0.0170333 -0.0155976 -0.0199973 -0.0170333 -0.0218137 -0.0184342 -0.0223702 -0.0199973 -0.0242475 -0.0223702 -0.0260777 -0.0242475 -0.0282447 -0.0199973 -0.0242475 -0.0218137 -0.026421 -0.0242475 -0.0282447 -0.026421 -0.0307448 0.00267797 -0.00145264 0.00352909 -0.00167841 -0.00145264 -0.00375751 -0.00167841 -0.00412452 0.00352909 -0.00167841 0.00451966 -0.00194294 -0.00167841 -0.00412452 -0.00194294 -0.00455682 -0.00375751 -0.00774354 -0.00412452 -0.0085286 -0.00774354 -0.0122482 -0.0085286 -0.0134679 -0.00412452 -0.0085286 -0.00455682 -0.00944943 -0.0085286 -0.0134679 -0.00944943 -0.0148926 0.00451966 -0.00194294 0.00566566 -0.00225257 -0.00194294 -0.00455682 -0.00225257 -0.00506809 0.00566566 -0.00225257 0.00698614 -0.00261572 -0.00225257 -0.00506809 -0.00261572 -0.00567721 -0.00455682 -0.00944943 -0.00506809 -0.0105326 -0.00944943 -0.0148926 -0.0105326 -0.0165603 -0.00506809 -0.0105326 -0.00567721 -0.0118141 -0.0105326 -0.0165603 -0.0118141 -0.018522 -0.0122482 -0.0170333 -0.0134679 -0.0187041 -0.0170333 -0.0218137 -0.0187041 -0.0239183 -0.0134679 -0.0187041 -0.0148926 -0.0206465 -0.0187041 -0.0239183 -0.0206465 -0.0263525 -0.0218137 -0.026421 -0.0239183 -0.0289282 -0.026421 -0.0307448 -0.0289282 -0.0336161 -0.0239183 -0.0289282 -0.0263525 -0.0318126 -0.0289282 -0.0336161 -0.0318126 -0.0369018 -0.0148926 -0.0206465 -0.0165603 -0.0229073 -0.0206465 -0.0263525 -0.0229073 -0.0291681 -0.0165603 -0.0229073 -0.018522 -0.0255479 -0.0229073 -0.0291681 -0.0255479 -0.0324319 -0.0263525 -0.0318126 -0.0291681 -0.0351273 -0.0318126 -0.0369018 -0.0351273 -0.040653 -0.0291681 -0.0351273 -0.0324319 -0.0389392 -0.0351273 -0.040653 -0.0389392 -0.0449324 -0.0225792 -0.025557 -0.0242049 -0.0273876 -0.025557 -0.0282418 -0.0273876 -0.0302571 -0.0242049 -0.0273876 -0.0260777 -0.0294928 -0.0273876 -0.0302571 -0.0294928 -0.0325715 -0.0282418 -0.030601 -0.0302571 -0.0327806 -0.030601 -0.0326082 -0.0327806 -0.0349317 -0.0302571 -0.0327806 -0.0325715 -0.0352809 -0.0327806 -0.0349317 -0.0352809 -0.0375953 -0.0260777 -0.0294928 -0.0282447 -0.0319226 -0.0294928 -0.0325715 -0.0319226 -0.0352366 -0.0282447 -0.0319226 -0.0307448 -0.0347164 -0.0319226 -0.0352366 -0.0347164 -0.0382917 -0.0325715 -0.0352809 -0.0352366 -0.0381547 -0.0352809 -0.0375953 -0.0381547 -0.0406524 -0.0352366 -0.0381547 -0.0382917 -0.0414406 -0.0381547 -0.0406524 -0.0414406 -0.044141 -0.0326082 -0.0342408 -0.0349317 -0.036688 -0.0342408 -0.0354799 -0.036688 -0.0380303 -0.0349317 -0.036688 -0.0375953 -0.0394928 -0.036688 -0.0380303 -0.0394928 -0.0409543 -0.0354799 -0.0363089 -0.0380303 -0.0389414 -0.0363089 -0.0367138 -0.0389414 -0.039406 -0.0380303 -0.0389414 -0.0409543 -0.0419623 -0.0389414 -0.039406 -0.0419623 -0.0425005 -0.0375953 -0.0394928 -0.0406524 -0.0427093 -0.0394928 -0.0409543 -0.0427093 -0.0443071 -0.0406524 -0.0427093 -0.044141 -0.0463749 -0.0427093 -0.0443071 -0.0463749 -0.0481261 -0.0409543 -0.0419623 -0.0443071 -0.0454285 -0.0419623 -0.0425005 -0.0454285 -0.0460559 -0.0443071 -0.0454285 -0.0481261 -0.049378 -0.0454285 -0.0460559 -0.049378 -0.0501128 -0.0307448 -0.0347164 -0.0336161 -0.0379118 -0.0347164 -0.0382917 -0.0379118 -0.0417726 -0.0336161 -0.0379118 -0.0369018 -0.0415494 -0.0379118 -0.0417726 -0.0415494 -0.0457162 -0.0382917 -0.0414406 -0.0417726 -0.0451719 -0.0414406 -0.044141 -0.0451719 -0.0480918 -0.0417726 -0.0451719 -0.0457162 -0.0493814 -0.0451719 -0.0480918 -0.0493814 -0.0525336 -0.0369018 -0.0415494 -0.040653 -0.045676 -0.0415494 -0.0457162 -0.045676 -0.0501634 -0.040653 -0.045676 -0.0449324 -0.0503469 -0.045676 -0.0501634 -0.0503469 -0.0551601 -0.0457162 -0.0493814 -0.0501634 -0.0541031 -0.0493814 -0.0525336 -0.0541031 -0.0574937 -0.0501634 -0.0541031 -0.0551601 -0.059373 -0.0541031 -0.0574937 -0.059373 -0.0629983 -0.044141 -0.0463749 -0.0480918 -0.0505186 -0.0463749 -0.0481261 -0.0505186 -0.0524394 -0.0480918 -0.0505186 -0.0525336 -0.0551655 -0.0505186 -0.0524394 -0.0551655 -0.0572699 -0.0481261 -0.049378 -0.0524394 -0.0538398 -0.049378 -0.0501128 -0.0538398 -0.0547021 -0.0524394 -0.0538398 -0.0572699 -0.0588363 -0.0538398 -0.0547021 -0.0588363 -0.0598484 -0.0525336 -0.0551655 -0.0574937 -0.0603374 -0.0551655 -0.0572699 -0.0603374 -0.0626354 -0.0574937 -0.0603374 -0.0629983 -0.0660518 -0.0603374 -0.0626354 -0.0660518 -0.0685469 -0.0572699 -0.0588363 -0.0626354 -0.0643836 -0.0588363 -0.0598484 -0.0643836 -0.0655693 -0.0626354 -0.0643836 -0.0685469 -0.0704891 -0.0643836 -0.0655693 -0.0704891 -0.0718721 -0.000112122 -0.000112681 -0.0103712 -0.0103537 -0.000112681 -0.000111498 -0.0103537 -0.0102009 -0.0103712 -0.0103537 -0.0179318 -0.0178917 -0.0103537 -0.0102009 -0.0178917 -0.0176213 -0.000111498 -0.000108517 -0.0102009 -0.00991204 -0.000108517 -0.000103709 -0.00991204 -0.00948845 -0.0102009 -0.00991204 -0.0176213 -0.0171205 -0.00991204 -0.00948845 -0.0171205 -0.0163916 -0.0179318 -0.0178917 -0.0232538 -0.0231935 -0.0178917 -0.0176213 -0.0231935 -0.0228387 -0.0232538 -0.0231935 -0.026997 -0.0269238 -0.0231935 -0.0228387 -0.0269238 -0.0265126 -0.0176213 -0.0171205 -0.0228387 -0.0221896 -0.0171205 -0.0163916 -0.0221896 -0.0212497 -0.0228387 -0.0221896 -0.0265126 -0.0257633 -0.0221896 -0.0212497 -0.0257633 -0.0246802 -0.000103709 -9.70714e-05 -0.00948845 -0.00893314 -9.70714e-05 -8.86224e-05 -0.00893314 -0.00825123 -0.00948845 -0.00893314 -0.0163916 -0.0154406 -0.00893314 -0.00825123 -0.0154406 -0.0142766 -8.86224e-05 -7.83941e-05 -0.00825123 -0.00745033 -7.83941e-05 -6.64367e-05 -0.00745033 -0.00654134 -0.00825123 -0.00745033 -0.0142766 -0.0129134 -0.00745033 -0.00654134 -0.0129134 -0.0113705 -0.0163916 -0.0154406 -0.0212497 -0.0200268 -0.0154406 -0.0142766 -0.0200268 -0.0185331 -0.0212497 -0.0200268 -0.0246802 -0.0232721 -0.0200268 -0.0185331 -0.0232721 -0.0215529 -0.0142766 -0.0129134 -0.0185331 -0.0167866 -0.0129134 -0.0113705 -0.0167866 -0.0148128 -0.0185331 -0.0167866 -0.0215529 -0.0195434 -0.0167866 -0.0148128 -0.0195434 -0.0172726 -0.026997 -0.0269238 -0.0297792 -0.0297024 -0.0269238 -0.0265126 -0.0297024 -0.0292558 -0.0297792 -0.0297024 -0.0321009 -0.0320299 -0.0297024 -0.0292558 -0.0320299 -0.0315635 -0.0265126 -0.0257633 -0.0292558 -0.0284393 -0.0257633 -0.0246802 -0.0284393 -0.0272569 -0.0292558 -0.0284393 -0.0315635 -0.0307005 -0.0284393 -0.0272569 -0.0307005 -0.0294439 -0.0321009 -0.0320299 -0.0343302 -0.0342745 -0.0320299 -0.0315635 -0.0342745 -0.0337994 -0.0343302 -0.0342745 -0.0367138 -0.0366831 -0.0342745 -0.0337994 -0.0366831 -0.0362082 -0.0315635 -0.0307005 -0.0337994 -0.032902 -0.0307005 -0.0294439 -0.032902 -0.0315836 -0.0337994 -0.032902 -0.0362082 -0.0352837 -0.032902 -0.0315836 -0.0352837 -0.0339084 -0.0246802 -0.0232721 -0.0272569 -0.0257175 -0.0232721 -0.0215529 -0.0257175 -0.0238358 -0.0272569 -0.0257175 -0.0294439 -0.0278021 -0.0257175 -0.0238358 -0.0278021 -0.0257894 -0.0215529 -0.0195434 -0.0238358 -0.0216337 -0.0195434 -0.0172726 -0.0216337 -0.0191422 -0.0238358 -0.0216337 -0.0257894 -0.0234279 -0.0216337 -0.0191422 -0.0234279 -0.0207498 -0.0294439 -0.0278021 -0.0315836 -0.029851 -0.0278021 -0.0257894 -0.029851 -0.0277174 -0.0315836 -0.029851 -0.0339084 -0.0320866 -0.029851 -0.0277174 -0.0320866 -0.0298291 -0.0257894 -0.0234279 -0.0277174 -0.0252042 -0.0234279 -0.0207498 -0.0252042 -0.0223441 -0.0277174 -0.0252042 -0.0298291 -0.0271562 -0.0252042 -0.0223441 -0.0271562 -0.0241004 -6.64367e-05 -5.28107e-05 -0.00654134 -0.00554032 -5.28107e-05 -3.77463e-05 -0.00554032 -0.00447091 -0.00654134 -0.00554032 -0.0113705 -0.00967609 -0.00554032 -0.00447091 -0.00967609 -0.00787121 -3.77463e-05 -2.12053e-05 -0.00447091 -0.00337273 -2.12053e-05 -5.91037e-06 -0.00337273 -0.00228885 -0.00447091 -0.00337273 -0.00787121 -0.00601984 -0.00337273 -0.00228885 -0.00601984 -0.00419584 -0.0113705 -0.00967609 -0.0148128 -0.0126479 -0.00967609 -0.00787121 -0.0126479 -0.0103436 -0.0148128 -0.0126479 -0.0172726 -0.0147814 -0.0126479 -0.0103436 -0.0147814 -0.0121278 -0.00787121 -0.00601984 -0.0103436 -0.00797744 -0.00601984 -0.00419584 -0.00797744 -0.00564035 -0.0103436 -0.00797744 -0.0121278 -0.00939704 -0.00797744 -0.00564035 -0.00939704 -0.00669003 -5.91037e-06 8.85767e-06 -0.00228885 -0.00136975 8.85767e-06 6.04274e-05 -0.00136975 -0.000311002 -0.00228885 -0.00136975 -0.00419584 -0.00260051 -0.00136975 -0.000311002 -0.00260051 -0.000927996 6.04274e-05 -2.06617e-05 -0.000311002 -0.00132621 -2.06617e-05 0.0103788 -0.00132621 0.0092177 -0.000311002 -0.00132621 -0.000927996 -0.001577 -0.00132621 0.0092177 -0.001577 0.00963971 -0.00419584 -0.00260051 -0.00564035 -0.00355436 -0.00260051 -0.000927996 -0.00355436 -0.0014351 -0.00564035 -0.00355436 -0.00669003 -0.00424251 -0.00355436 -0.0014351 -0.00424251 -0.00179463 -0.000927996 -0.001577 -0.0014351 -0.00175378 -0.001577 0.00963971 -0.00175378 0.00951204 -0.0014351 -0.00175378 -0.00179463 -0.00185802 -0.00175378 0.00951204 -0.00185802 0.00946981 -0.0172726 -0.0147814 -0.0191422 -0.0164054 -0.0147814 -0.0121278 -0.0164054 -0.013485 -0.0191422 -0.0164054 -0.0207498 -0.0178011 -0.0164054 -0.013485 -0.0178011 -0.0146472 -0.0121278 -0.00939704 -0.013485 -0.0104721 -0.00939704 -0.00669003 -0.0104721 -0.00747609 -0.013485 -0.0104721 -0.0146472 -0.0113855 -0.0104721 -0.00747609 -0.0113855 -0.00813455 -0.0207498 -0.0178011 -0.0223441 -0.0191851 -0.0178011 -0.0146472 -0.0191851 -0.015797 -0.0223441 -0.0191851 -0.0241004 -0.0207119 -0.0191851 -0.015797 -0.0207119 -0.0170655 -0.0146472 -0.0113855 -0.015797 -0.0122842 -0.0113855 -0.00813455 -0.0122842 -0.00877702 -0.015797 -0.0122842 -0.0170655 -0.013275 -0.0122842 -0.00877702 -0.013275 -0.00948433 -0.00669003 -0.00424251 -0.00747609 -0.00474689 -0.00424251 -0.00179463 -0.00474689 -0.00204504 -0.00747609 -0.00474689 -0.00813455 -0.00516107 -0.00474689 -0.00204504 -0.00516107 -0.00224224 -0.00179463 -0.00185802 -0.00204504 -0.00193458 -0.00185802 0.00946981 -0.00193458 0.00951851 -0.00204504 -0.00193458 -0.00224224 -0.00200701 -0.00193458 0.00951851 -0.00200701 0.00964851 -0.00813455 -0.00516107 -0.00877702 -0.00556165 -0.00516107 -0.00224224 -0.00556165 -0.00242849 -0.00877702 -0.00556165 -0.00948433 -0.00600296 -0.00556165 -0.00242849 -0.00600296 -0.00263249 -0.00224224 -0.00200701 -0.00242849 -0.00208804 -0.00200701 0.00964851 -0.00208804 0.00986272 -0.00242849 -0.00208804 -0.00263249 -0.00218663 -0.00208804 0.00986272 -0.00218663 0.0101617 -0.0367138 -0.0366831 -0.039406 -0.0394109 -0.0366831 -0.0362082 -0.0394109 -0.0389448 -0.039406 -0.0394109 -0.0425005 -0.0425533 -0.0394109 -0.0389448 -0.0425533 -0.0421063 -0.0362082 -0.0352837 -0.0389448 -0.0379991 -0.0352837 -0.0339084 -0.0379991 -0.0365691 -0.0389448 -0.0379991 -0.0421063 -0.0411468 -0.0379991 -0.0365691 -0.0411468 -0.039665 -0.0425005 -0.0425533 -0.0460559 -0.0461717 -0.0425533 -0.0421063 -0.0461717 -0.0457574 -0.0460559 -0.0461717 -0.0501128 -0.0503101 -0.0461717 -0.0457574 -0.0503101 -0.0499472 -0.0421063 -0.0411468 -0.0457574 -0.0447952 -0.0411468 -0.039665 -0.0447952 -0.0432686 -0.0457574 -0.0447952 -0.0499472 -0.0489995 -0.0447952 -0.0432686 -0.0489995 -0.047442 -0.0339084 -0.0320866 -0.0365691 -0.0346551 -0.0320866 -0.0298291 -0.0346551 -0.0322648 -0.0365691 -0.0346551 -0.039665 -0.037656 -0.0346551 -0.0322648 -0.037656 -0.0351223 -0.0298291 -0.0271562 -0.0322648 -0.0294157 -0.0271562 -0.0241004 -0.0294157 -0.0261399 -0.0322648 -0.0294157 -0.0351223 -0.0320775 -0.0294157 -0.0261399 -0.0320775 -0.0285519 -0.039665 -0.037656 -0.0432686 -0.0411653 -0.037656 -0.0351223 -0.0411653 -0.0384804 -0.0432686 -0.0411653 -0.047442 -0.0452522 -0.0411653 -0.0384804 -0.0452522 -0.0424146 -0.0351223 -0.0320775 -0.0384804 -0.0352213 -0.0320775 -0.0285519 -0.0352213 -0.0314144 -0.0384804 -0.0352213 -0.0424146 -0.0389266 -0.0352213 -0.0314144 -0.0389266 -0.0348081 -0.0501128 -0.0503101 -0.0547021 -0.0550038 -0.0503101 -0.0499472 -0.0550038 -0.0547173 -0.0547021 -0.0550038 -0.0598484 -0.0602823 -0.0550038 -0.0547173 -0.0602823 -0.0601052 -0.0499472 -0.0489995 -0.0547173 -0.0538099 -0.0489995 -0.047442 -0.0538099 -0.0522455 -0.0547173 -0.0538099 -0.0601052 -0.0592749 -0.0538099 -0.0522455 -0.0592749 -0.0577415 -0.0598484 -0.0602823 -0.0655693 -0.0661683 -0.0602823 -0.0601052 -0.0661683 -0.0661428 -0.0655693 -0.0661683 -0.0718721 -0.0726736 -0.0661683 -0.0661428 -0.0726736 -0.0728524 -0.0601052 -0.0592749 -0.0661428 -0.0654403 -0.0592749 -0.0577415 -0.0654403 -0.0639941 -0.0661428 -0.0654403 -0.0728524 -0.072345 -0.0654403 -0.0639941 -0.072345 -0.0710657 -0.047442 -0.0452522 -0.0522455 -0.049988 -0.0452522 -0.0424146 -0.049988 -0.0470065 -0.0522455 -0.049988 -0.0577415 -0.0554507 -0.049988 -0.0470065 -0.0554507 -0.0523506 -0.0424146 -0.0389266 -0.0470065 -0.0432838 -0.0389266 -0.0348081 -0.0432838 -0.0388281 -0.0470065 -0.0432838 -0.0523506 -0.0484017 -0.0432838 -0.0388281 -0.0484017 -0.0435932 -0.0577415 -0.0554507 -0.0639941 -0.0617266 -0.0554507 -0.0523506 -0.0617266 -0.058557 -0.0639941 -0.0617266 -0