# vtk DataFile Version 3.0
#This file was generated by the deal.II library on 2026/1/5 at 14:19:31
ASCII
DATASET UNSTRUCTURED_GRID

POINTS 4096 double
0 0 0
0.03125 0 0
0 0.03125 0
0.03125 0.03125 0
0.03125 0 0
0.0625 0 0
0.03125 0.03125 0
0.0625 0.03125 0
0 0.03125 0
0.03125 0.03125 0
0 0.0625 0
0.03125 0.0625 0
0.03125 0.03125 0
0.0625 0.03125 0
0.03125 0.0625 0
0.0625 0.0625 0
0.0625 0 0
0.09375 0 0
0.0625 0.03125 0
0.09375 0.03125 0
0.09375 0 0
0.125 0 0
0.09375 0.03125 0
0.125 0.03125 0
0.0625 0.03125 0
0.09375 0.03125 0
0.0625 0.0625 0
0.09375 0.0625 0
0.09375 0.03125 0
0.125 0.03125 0
0.09375 0.0625 0
0.125 0.0625 0
0 0.0625 0
0.03125 0.0625 0
0 0.09375 0
0.03125 0.09375 0
0.03125 0.0625 0
0.0625 0.0625 0
0.03125 0.09375 0
0.0625 0.09375 0
0 0.09375 0
0.03125 0.09375 0
0 0.125 0
0.03125 0.125 0
0.03125 0.09375 0
0.0625 0.09375 0
0.03125 0.125 0
0.0625 0.125 0
0.0625 0.0625 0
0.09375 0.0625 0
0.0625 0.09375 0
0.09375 0.09375 0
0.09375 0.0625 0
0.125 0.0625 0
0.09375 0.09375 0
0.125 0.09375 0
0.0625 0.09375 0
0.09375 0.09375 0
0.0625 0.125 0
0.09375 0.125 0
0.09375 0.09375 0
0.125 0.09375 0
0.09375 0.125 0
0.125 0.125 0
0.125 0 0
0.15625 0 0
0.125 0.03125 0
0.15625 0.03125 0
0.15625 0 0
0.1875 0 0
0.15625 0.03125 0
0.1875 0.03125 0
0.125 0.03125 0
0.15625 0.03125 0
0.125 0.0625 0
0.15625 0.0625 0
0.15625 0.03125 0
0.1875 0.03125 0
0.15625 0.0625 0
0.1875 0.0625 0
0.1875 0 0
0.21875 0 0
0.1875 0.03125 0
0.21875 0.03125 0
0.21875 0 0
0.25 0 0
0.21875 0.03125 0
0.25 0.03125 0
0.1875 0.03125 0
0.21875 0.03125 0
0.1875 0.0625 0
0.21875 0.0625 0
0.21875 0.03125 0
0.25 0.03125 0
0.21875 0.0625 0
0.25 0.0625 0
0.125 0.0625 0
0.15625 0.0625 0
0.125 0.09375 0
0.15625 0.09375 0
0.15625 0.0625 0
0.1875 0.0625 0
0.15625 0.09375 0
0.1875 0.09375 0
0.125 0.09375 0
0.15625 0.09375 0
0.125 0.125 0
0.15625 0.125 0
0.15625 0.09375 0
0.1875 0.09375 0
0.15625 0.125 0
0.1875 0.125 0
0.1875 0.0625 0
0.21875 0.0625 0
0.1875 0.09375 0
0.21875 0.09375 0
0.21875 0.0625 0
0.25 0.0625 0
0.21875 0.09375 0
0.25 0.09375 0
0.1875 0.09375 0
0.21875 0.09375 0
0.1875 0.125 0
0.21875 0.125 0
0.21875 0.09375 0
0.25 0.09375 0
0.21875 0.125 0
0.25 0.125 0
0 0.125 0
0.03125 0.125 0
0 0.15625 0
0.03125 0.15625 0
0.03125 0.125 0
0.0625 0.125 0
0.03125 0.15625 0
0.0625 0.15625 0
0 0.15625 0
0.03125 0.15625 0
0 0.1875 0
0.03125 0.1875 0
0.03125 0.15625 0
0.0625 0.15625 0
0.03125 0.1875 0
0.0625 0.1875 0
0.0625 0.125 0
0.09375 0.125 0
0.0625 0.15625 0
0.09375 0.15625 0
0.09375 0.125 0
0.125 0.125 0
0.09375 0.15625 0
0.125 0.15625 0
0.0625 0.15625 0
0.09375 0.15625 0
0.0625 0.1875 0
0.09375 0.1875 0
0.09375 0.15625 0
0.125 0.15625 0
0.09375 0.1875 0
0.125 0.1875 0
0 0.1875 0
0.03125 0.1875 0
0 0.21875 0
0.03125 0.21875 0
0.03125 0.1875 0
0.0625 0.1875 0
0.03125 0.21875 0
0.0625 0.21875 0
0 0.21875 0
0.03125 0.21875 0
0 0.25 0
0.03125 0.25 0
0.03125 0.21875 0
0.0625 0.21875 0
0.03125 0.25 0
0.0625 0.25 0
0.0625 0.1875 0
0.09375 0.1875 0
0.0625 0.21875 0
0.09375 0.21875 0
0.09375 0.1875 0
0.125 0.1875 0
0.09375 0.21875 0
0.125 0.21875 0
0.0625 0.21875 0
0.09375 0.21875 0
0.0625 0.25 0
0.09375 0.25 0
0.09375 0.21875 0
0.125 0.21875 0
0.09375 0.25 0
0.125 0.25 0
0.125 0.125 0
0.15625 0.125 0
0.125 0.15625 0
0.15625 0.15625 0
0.15625 0.125 0
0.1875 0.125 0
0.15625 0.15625 0
0.1875 0.15625 0
0.125 0.15625 0
0.15625 0.15625 0
0.125 0.1875 0
0.15625 0.1875 0
0.15625 0.15625 0
0.1875 0.15625 0
0.15625 0.1875 0
0.1875 0.1875 0
0.1875 0.125 0
0.21875 0.125 0
0.1875 0.15625 0
0.21875 0.15625 0
0.21875 0.125 0
0.25 0.125 0
0.21875 0.15625 0
0.25 0.15625 0
0.1875 0.15625 0
0.21875 0.15625 0
0.1875 0.1875 0
0.21875 0.1875 0
0.21875 0.15625 0
0.25 0.15625 0
0.21875 0.1875 0
0.25 0.1875 0
0.125 0.1875 0
0.15625 0.1875 0
0.125 0.21875 0
0.15625 0.21875 0
0.15625 0.1875 0
0.1875 0.1875 0
0.15625 0.21875 0
0.1875 0.21875 0
0.125 0.21875 0
0.15625 0.21875 0
0.125 0.25 0
0.15625 0.25 0
0.15625 0.21875 0
0.1875 0.21875 0
0.15625 0.25 0
0.1875 0.25 0
0.1875 0.1875 0
0.21875 0.1875 0
0.1875 0.21875 0
0.21875 0.21875 0
0.21875 0.1875 0
0.25 0.1875 0
0.21875 0.21875 0
0.25 0.21875 0
0.1875 0.21875 0
0.21875 0.21875 0
0.1875 0.25 0
0.21875 0.25 0
0.21875 0.21875 0
0.25 0.21875 0
0.21875 0.25 0
0.25 0.25 0
0.25 0 0
0.28125 0 0
0.25 0.03125 0
0.28125 0.03125 0
0.28125 0 0
0.3125 0 0
0.28125 0.03125 0
0.3125 0.03125 0
0.25 0.03125 0
0.28125 0.03125 0
0.25 0.0625 0
0.28125 0.0625 0
0.28125 0.03125 0
0.3125 0.03125 0
0.28125 0.0625 0
0.3125 0.0625 0
0.3125 0 0
0.34375 0 0
0.3125 0.03125 0
0.34375 0.03125 0
0.34375 0 0
0.375 0 0
0.34375 0.03125 0
0.375 0.03125 0
0.3125 0.03125 0
0.34375 0.03125 0
0.3125 0.0625 0
0.34375 0.0625 0
0.34375 0.03125 0
0.375 0.03125 0
0.34375 0.0625 0
0.375 0.0625 0
0.25 0.0625 0
0.28125 0.0625 0
0.25 0.09375 0
0.28125 0.09375 0
0.28125 0.0625 0
0.3125 0.0625 0
0.28125 0.09375 0
0.3125 0.09375 0
0.25 0.09375 0
0.28125 0.09375 0
0.25 0.125 0
0.28125 0.125 0
0.28125 0.09375 0
0.3125 0.09375 0
0.28125 0.125 0
0.3125 0.125 0
0.3125 0.0625 0
0.34375 0.0625 0
0.3125 0.09375 0
0.34375 0.09375 0
0.34375 0.0625 0
0.375 0.0625 0
0.34375 0.09375 0
0.375 0.09375 0
0.3125 0.09375 0
0.34375 0.09375 0
0.3125 0.125 0
0.34375 0.125 0
0.34375 0.09375 0
0.375 0.09375 0
0.34375 0.125 0
0.375 0.125 0
0.375 0 0
0.40625 0 0
0.375 0.03125 0
0.40625 0.03125 0
0.40625 0 0
0.4375 0 0
0.40625 0.03125 0
0.4375 0.03125 0
0.375 0.03125 0
0.40625 0.03125 0
0.375 0.0625 0
0.40625 0.0625 0
0.40625 0.03125 0
0.4375 0.03125 0
0.40625 0.0625 0
0.4375 0.0625 0
0.4375 0 0
0.46875 0 0
0.4375 0.03125 0
0.46875 0.03125 0
0.46875 0 0
0.5 0 0
0.46875 0.03125 0
0.5 0.03125 0
0.4375 0.03125 0
0.46875 0.03125 0
0.4375 0.0625 0
0.46875 0.0625 0
0.46875 0.03125 0
0.5 0.03125 0
0.46875 0.0625 0
0.5 0.0625 0
0.375 0.0625 0
0.40625 0.0625 0
0.375 0.09375 0
0.40625 0.09375 0
0.40625 0.0625 0
0.4375 0.0625 0
0.40625 0.09375 0
0.4375 0.09375 0
0.375 0.09375 0
0.40625 0.09375 0
0.375 0.125 0
0.40625 0.125 0
0.40625 0.09375 0
0.4375 0.09375 0
0.40625 0.125 0
0.4375 0.125 0
0.4375 0.0625 0
0.46875 0.0625 0
0.4375 0.09375 0
0.46875 0.09375 0
0.46875 0.0625 0
0.5 0.0625 0
0.46875 0.09375 0
0.5 0.09375 0
0.4375 0.09375 0
0.46875 0.09375 0
0.4375 0.125 0
0.46875 0.125 0
0.46875 0.09375 0
0.5 0.09375 0
0.46875 0.125 0
0.5 0.125 0
0.25 0.125 0
0.28125 0.125 0
0.25 0.15625 0
0.28125 0.15625 0
0.28125 0.125 0
0.3125 0.125 0
0.28125 0.15625 0
0.3125 0.15625 0
0.25 0.15625 0
0.28125 0.15625 0
0.25 0.1875 0
0.28125 0.1875 0
0.28125 0.15625 0
0.3125 0.15625 0
0.28125 0.1875 0
0.3125 0.1875 0
0.3125 0.125 0
0.34375 0.125 0
0.3125 0.15625 0
0.34375 0.15625 0
0.34375 0.125 0
0.375 0.125 0
0.34375 0.15625 0
0.375 0.15625 0
0.3125 0.15625 0
0.34375 0.15625 0
0.3125 0.1875 0
0.34375 0.1875 0
0.34375 0.15625 0
0.375 0.15625 0
0.34375 0.1875 0
0.375 0.1875 0
0.25 0.1875 0
0.28125 0.1875 0
0.25 0.21875 0
0.28125 0.21875 0
0.28125 0.1875 0
0.3125 0.1875 0
0.28125 0.21875 0
0.3125 0.21875 0
0.25 0.21875 0
0.28125 0.21875 0
0.25 0.25 0
0.28125 0.25 0
0.28125 0.21875 0
0.3125 0.21875 0
0.28125 0.25 0
0.3125 0.25 0
0.3125 0.1875 0
0.34375 0.1875 0
0.3125 0.21875 0
0.34375 0.21875 0
0.34375 0.1875 0
0.375 0.1875 0
0.34375 0.21875 0
0.375 0.21875 0
0.3125 0.21875 0
0.34375 0.21875 0
0.3125 0.25 0
0.34375 0.25 0
0.34375 0.21875 0
0.375 0.21875 0
0.34375 0.25 0
0.375 0.25 0
0.375 0.125 0
0.40625 0.125 0
0.375 0.15625 0
0.40625 0.15625 0
0.40625 0.125 0
0.4375 0.125 0
0.40625 0.15625 0
0.4375 0.15625 0
0.375 0.15625 0
0.40625 0.15625 0
0.375 0.1875 0
0.40625 0.1875 0
0.40625 0.15625 0
0.4375 0.15625 0
0.40625 0.1875 0
0.4375 0.1875 0
0.4375 0.125 0
0.46875 0.125 0
0.4375 0.15625 0
0.46875 0.15625 0
0.46875 0.125 0
0.5 0.125 0
0.46875 0.15625 0
0.5 0.15625 0
0.4375 0.15625 0
0.46875 0.15625 0
0.4375 0.1875 0
0.46875 0.1875 0
0.46875 0.15625 0
0.5 0.15625 0
0.46875 0.1875 0
0.5 0.1875 0
0.375 0.1875 0
0.40625 0.1875 0
0.375 0.21875 0
0.40625 0.21875 0
0.40625 0.1875 0
0.4375 0.1875 0
0.40625 0.21875 0
0.4375 0.21875 0
0.375 0.21875 0
0.40625 0.21875 0
0.375 0.25 0
0.40625 0.25 0
0.40625 0.21875 0
0.4375 0.21875 0
0.40625 0.25 0
0.4375 0.25 0
0.4375 0.1875 0
0.46875 0.1875 0
0.4375 0.21875 0
0.46875 0.21875 0
0.46875 0.1875 0
0.5 0.1875 0
0.46875 0.21875 0
0.5 0.21875 0
0.4375 0.21875 0
0.46875 0.21875 0
0.4375 0.25 0
0.46875 0.25 0
0.46875 0.21875 0
0.5 0.21875 0
0.46875 0.25 0
0.5 0.25 0
0 0.25 0
0.03125 0.25 0
0 0.28125 0
0.03125 0.28125 0
0.03125 0.25 0
0.0625 0.25 0
0.03125 0.28125 0
0.0625 0.28125 0
0 0.28125 0
0.03125 0.28125 0
0 0.3125 0
0.03125 0.3125 0
0.03125 0.28125 0
0.0625 0.28125 0
0.03125 0.3125 0
0.0625 0.3125 0
0.0625 0.25 0
0.09375 0.25 0
0.0625 0.28125 0
0.09375 0.28125 0
0.09375 0.25 0
0.125 0.25 0
0.09375 0.28125 0
0.125 0.28125 0
0.0625 0.28125 0
0.09375 0.28125 0
0.0625 0.3125 0
0.09375 0.3125 0
0.09375 0.28125 0
0.125 0.28125 0
0.09375 0.3125 0
0.125 0.3125 0
0 0.3125 0
0.03125 0.3125 0
0 0.34375 0
0.03125 0.34375 0
0.03125 0.3125 0
0.0625 0.3125 0
0.03125 0.34375 0
0.0625 0.34375 0
0 0.34375 0
0.03125 0.34375 0
0 0.375 0
0.03125 0.375 0
0.03125 0.34375 0
0.0625 0.34375 0
0.03125 0.375 0
0.0625 0.375 0
0.0625 0.3125 0
0.09375 0.3125 0
0.0625 0.34375 0
0.09375 0.34375 0
0.09375 0.3125 0
0.125 0.3125 0
0.09375 0.34375 0
0.125 0.34375 0
0.0625 0.34375 0
0.09375 0.34375 0
0.0625 0.375 0
0.09375 0.375 0
0.09375 0.34375 0
0.125 0.34375 0
0.09375 0.375 0
0.125 0.375 0
0.125 0.25 0
0.15625 0.25 0
0.125 0.28125 0
0.15625 0.28125 0
0.15625 0.25 0
0.1875 0.25 0
0.15625 0.28125 0
0.1875 0.28125 0
0.125 0.28125 0
0.15625 0.28125 0
0.125 0.3125 0
0.15625 0.3125 0
0.15625 0.28125 0
0.1875 0.28125 0
0.15625 0.3125 0
0.1875 0.3125 0
0.1875 0.25 0
0.21875 0.25 0
0.1875 0.28125 0
0.21875 0.28125 0
0.21875 0.25 0
0.25 0.25 0
0.21875 0.28125 0
0.25 0.28125 0
0.1875 0.28125 0
0.21875 0.28125 0
0.1875 0.3125 0
0.21875 0.3125 0
0.21875 0.28125 0
0.25 0.28125 0
0.21875 0.3125 0
0.25 0.3125 0
0.125 0.3125 0
0.15625 0.3125 0
0.125 0.34375 0
0.15625 0.34375 0
0.15625 0.3125 0
0.1875 0.3125 0
0.15625 0.34375 0
0.1875 0.34375 0
0.125 0.34375 0
[...]
POINT_DATA 4096
SCALARS u_x double 1
LOOKUP_TABLE default
1.07696e-05 1.5218e-05 -5.4423e-05 -0.000150371 1.5218e-05 1.46154e-05 -0.000150371 -0.000653845 -5.4423e-05 -0.000150371 -0.00016269 -0.000342064 -0.000150371 -0.000653845 -0.000342064 -0.00126811 1.46154e-05 1.61239e-06 -0.000653845 -0.00141636 1.61239e-06 -1.4909e-05 -0.00141636 -0.00232572 -0.000653845 -0.00141636 -0.00126811 -0.00255012 -0.00141636 -0.00232572 -0.00255012 -0.0040422 -0.00016269 -0.000342064 -0.000217702 -0.000470766 -0.000342064 -0.00126811 -0.000470766 -0.00168566 -0.000217702 -0.000470766 -0.000183571 -0.00055189 -0.000470766 -0.00168566 -0.00055189 -0.00193547 -0.00126811 -0.00255012 -0.00168566 -0.00331307 -0.00255012 -0.0040422 -0.00331307 -0.0051725 -0.00168566 -0.00331307 -0.00193547 -0.00378739 -0.00331307 -0.0051725 -0.00378739 -0.00588062 -1.4909e-05 -3.14435e-05 -0.00232572 -0.00328373 -3.14435e-05 -4.69444e-05 -0.00328373 -0.00423222 -0.00232572 -0.00328373 -0.0040422 -0.00560636 -0.00328373 -0.00423222 -0.00560636 -0.00715675 -4.69444e-05 -6.12958e-05 -0.00423222 -0.00513916 -6.12958e-05 -7.45459e-05 -0.00513916 -0.00598675 -0.00423222 -0.00513916 -0.00715675 -0.00864174 -0.00513916 -0.00598675 -0.00864174 -0.0100306 -0.0040422 -0.00560636 -0.0051725 -0.00710732 -0.00560636 -0.00715675 -0.00710732 -0.00902089 -0.0051725 -0.00710732 -0.00588062 -0.00804684 -0.00710732 -0.00902089 -0.00804684 -0.010183 -0.00715675 -0.00864174 -0.00902089 -0.0108531 -0.00864174 -0.0100306 -0.0108531 -0.0125665 -0.00902089 -0.0108531 -0.010183 -0.0122256 -0.0108531 -0.0125665 -0.0122256 -0.0141346 -0.000183571 -0.00055189 -5.16137e-05 -0.000614915 -0.00055189 -0.00193547 -0.000614915 -0.00209014 -5.16137e-05 -0.000614915 0.000178744 -0.000681079 -0.000614915 -0.00209014 -0.000681079 -0.00220953 -0.00193547 -0.00378739 -0.00209014 -0.00410011 -0.00378739 -0.00588062 -0.00410011 -0.00635751 -0.00209014 -0.00410011 -0.00220953 -0.0043551 -0.00410011 -0.00635751 -0.0043551 -0.00675241 0.000178744 -0.000681079 0.000508066 -0.000762069 -0.000681079 -0.00220953 -0.000762069 -0.00232961 0.000508066 -0.000762069 0.000939026 -0.000863625 -0.000762069 -0.00232961 -0.000863625 -0.00246848 -0.00220953 -0.0043551 -0.00232961 -0.00461709 -0.0043551 -0.00675241 -0.00461709 -0.00715861 -0.00232961 -0.00461709 -0.00246848 -0.00492025 -0.00461709 -0.00715861 -0.00492025 -0.00762626 -0.00588062 -0.00804684 -0.00635751 -0.00868722 -0.00804684 -0.010183 -0.00868722 -0.0109791 -0.00635751 -0.00868722 -0.00675241 -0.00922455 -0.00868722 -0.0109791 -0.00922455 -0.0116526 -0.010183 -0.0122256 -0.0109791 -0.0131676 -0.0122256 -0.0141346 -0.0131676 -0.0152111 -0.0109791 -0.0131676 -0.0116526 -0.0139683 -0.0131676 -0.0152111 -0.0139683 -0.0161286 -0.00675241 -0.00922455 -0.00715861 -0.00977986 -0.00922455 -0.0116526 -0.00977986 -0.0123512 -0.00715861 -0.00977986 -0.00762626 -0.0104183 -0.00977986 -0.0123512 -0.0104183 -0.013154 -0.0116526 -0.0139683 -0.0123512 -0.0148011 -0.0139683 -0.0161286 -0.0148011 -0.0170844 -0.0123512 -0.0148011 -0.013154 -0.0157578 -0.0148011 -0.0170844 -0.0157578 -0.0181821 -7.45459e-05 -8.67018e-05 -0.00598675 -0.00676342 -8.67018e-05 -9.77051e-05 -0.00676342 -0.00746017 -0.00598675 -0.00676342 -0.0100306 -0.0113031 -0.00676342 -0.00746017 -0.0113031 -0.0124435 -9.77051e-05 -0.000107459 -0.00746017 -0.00806919 -0.000107459 -0.000115853 -0.00806919 -0.00858356 -0.00746017 -0.00806919 -0.0124435 -0.0134388 -0.00806919 -0.00858356 -0.0134388 -0.0142777 -0.0100306 -0.0113031 -0.0125665 -0.0141357 -0.0113031 -0.0124435 -0.0141357 -0.0155411 -0.0125665 -0.0141357 -0.0141346 -0.015882 -0.0141357 -0.0155411 -0.015882 -0.0174461 -0.0124435 -0.0134388 -0.0155411 -0.0167664 -0.0134388 -0.0142777 -0.0167664 -0.0177977 -0.0155411 -0.0167664 -0.0174461 -0.018809 -0.0167664 -0.0177977 -0.018809 -0.0199554 -0.000115853 -0.000122772 -0.00858356 -0.00899721 -0.000122772 -0.00012811 -0.00899721 -0.00930504 -0.00858356 -0.00899721 -0.0142777 -0.0149505 -0.00899721 -0.00930504 -0.0149505 -0.015449 -0.00012811 -0.000131774 -0.00930504 -0.00950291 -0.000131774 -0.000133688 -0.00950291 -0.00958776 -0.00930504 -0.00950291 -0.015449 -0.0157669 -0.00950291 -0.00958776 -0.0157669 -0.0158994 -0.0142777 -0.0149505 -0.0177977 -0.0186233 -0.0149505 -0.015449 -0.0186233 -0.0192334 -0.0177977 -0.0186233 -0.0199554 -0.0208724 -0.0186233 -0.0192334 -0.0208724 -0.0215496 -0.015449 -0.0157669 -0.0192334 -0.0196205 -0.0157669 -0.0158994 -0.0196205 -0.0197791 -0.0192334 -0.0196205 -0.0215496 -0.0219786 -0.0196205 -0.0197791 -0.0219786 -0.0221536 -0.0141346 -0.015882 -0.0152111 -0.0170806 -0.015882 -0.0174461 -0.0170806 -0.0187532 -0.0152111 -0.0170806 -0.0161286 -0.0181036 -0.0170806 -0.0187532 -0.0181036 -0.0198702 -0.0174461 -0.018809 -0.0187532 -0.0202103 -0.018809 -0.0199554 -0.0202103 -0.0214358 -0.0187532 -0.0202103 -0.0198702 -0.0214089 -0.0202103 -0.0214358 -0.0214089 -0.0227034 -0.0161286 -0.0181036 -0.0170844 -0.0191706 -0.0181036 -0.0198702 -0.0191706 -0.0210357 -0.0170844 -0.0191706 -0.0181821 -0.0203951 -0.0191706 -0.0210357 -0.0203951 -0.0223725 -0.0198702 -0.0214089 -0.0210357 -0.0226601 -0.0214089 -0.0227034 -0.0226601 -0.0240275 -0.0210357 -0.0226601 -0.0223725 -0.0240946 -0.0226601 -0.0240275 -0.0240946 -0.025545 -0.0199554 -0.0208724 -0.0214358 -0.0224164 -0.0208724 -0.0215496 -0.0224164 -0.0231409 -0.0214358 -0.0224164 -0.0227034 -0.0237401 -0.0224164 -0.0231409 -0.0237401 -0.0245078 -0.0215496 -0.0219786 -0.0231409 -0.023601 -0.0219786 -0.0221536 -0.023601 -0.0237902 -0.0231409 -0.023601 -0.0245078 -0.0249976 -0.023601 -0.0237902 -0.0249976 -0.0252029 -0.0227034 -0.0237401 -0.0240275 -0.0251241 -0.0237401 -0.0245078 -0.0251241 -0.0259384 -0.0240275 -0.0251241 -0.025545 -0.0267099 -0.0251241 -0.0259384 -0.0267099 -0.0275781 -0.0245078 -0.0249976 -0.0259384 -0.0264616 -0.0249976 -0.0252029 -0.0264616 -0.0266866 -0.0259384 -0.0264616 -0.0275781 -0.0281405 -0.0264616 -0.0266866 -0.0281405 -0.02839 0.000939026 -0.000863625 0.00147664 -0.000988772 -0.000863625 -0.00246848 -0.000988772 -0.00263468 0.00147664 -0.000988772 0.00212805 -0.00113982 -0.000988772 -0.00263468 -0.00113982 -0.00283316 -0.00246848 -0.00492025 -0.00263468 -0.00528185 -0.00492025 -0.00762626 -0.00528185 -0.00818131 -0.00263468 -0.00528185 -0.00283316 -0.00571236 -0.00528185 -0.00818131 -0.00571236 -0.00883974 0.00212805 -0.00113982 0.00290237 -0.00131928 -0.00113982 -0.00283316 -0.00131928 -0.00306833 0.00290237 -0.00131928 0.0038107 -0.00153027 -0.00131928 -0.00306833 -0.00153027 -0.00334549 -0.00283316 -0.00571236 -0.00306833 -0.00622109 -0.00571236 -0.00883974 -0.00622109 -0.00961555 -0.00306833 -0.00622109 -0.00334549 -0.0068189 -0.00622109 -0.00961555 -0.0068189 -0.0105247 -0.00762626 -0.0104183 -0.00818131 -0.0111738 -0.0104183 -0.013154 -0.0111738 -0.014102 -0.00818131 -0.0111738 -0.00883974 -0.0120674 -0.0111738 -0.014102 -0.0120674 -0.0152203 -0.013154 -0.0157578 -0.014102 -0.0168855 -0.0157578 -0.0181821 -0.0168855 -0.0194739 -0.014102 -0.0168855 -0.0152203 -0.0182126 -0.0168855 -0.0194739 -0.0182126 -0.0209905 -0.00883974 -0.0120674 -0.00961555 -0.0131172 -0.0120674 -0.0152203 -0.0131172 -0.0165304 -0.00961555 -0.0131172 -0.0105247 -0.0143438 -0.0131172 -0.0165304 -0.0143438 -0.0180559 -0.0152203 -0.0182126 -0.0165304 -0.0197628 -0.0182126 -0.0209905 -0.0197628 -0.0227571 -0.0165304 -0.0197628 -0.0180559 -0.0215618 -0.0197628 -0.0227571 -0.0215618 -0.0248 0.0038107 -0.00153027 0.00486632 -0.00177678 -0.00153027 -0.00334549 -0.00177678 -0.00367158 0.00486632 -0.00177678 0.006085 -0.00206386 -0.00177678 -0.00367158 -0.00206386 -0.00405588 -0.00334549 -0.0068189 -0.00367158 -0.00751967 -0.0068189 -0.0105247 -0.00751967 -0.0115873 -0.00367158 -0.00751967 -0.00405588 -0.00834166 -0.00751967 -0.0115873 -0.00834166 -0.0128296 0.006085 -0.00206386 0.00748538 -0.00239797 -0.00206386 -0.00405588 -0.00239797 -0.00451096 0.00748538 -0.00239797 0.00908968 -0.0027876 -0.00239797 -0.00451096 -0.0027876 -0.00505409 -0.00405588 -0.00834166 -0.00451096 -0.00930919 -0.00834166 -0.0128296 -0.00930919 -0.0142858 -0.00451096 -0.00930919 -0.00505409 -0.0104551 -0.00930919 -0.0142858 -0.0104551 -0.0160019 -0.0105247 -0.0143438 -0.0115873 -0.0157723 -0.0143438 -0.0180559 -0.0157723 -0.0198258 -0.0115873 -0.0157723 -0.0128296 -0.0174352 -0.0157723 -0.0198258 -0.0174352 -0.0218762 -0.0180559 -0.0215618 -0.0198258 -0.0236401 -0.0215618 -0.0248 -0.0236401 -0.0271499 -0.0198258 -0.0236401 -0.0218762 -0.0260358 -0.0236401 -0.0271499 -0.0260358 -0.0298445 -0.0128296 -0.0174352 -0.0142858 -0.0193746 -0.0174352 -0.0218762 -0.0193746 -0.0242537 -0.0142858 -0.0193746 -0.0160019 -0.0216455 -0.0193746 -0.0242537 -0.0216455 -0.027018 -0.0218762 -0.0260358 -0.0242537 -0.0287962 -0.0260358 -0.0298445 -0.0287962 -0.0329294 -0.0242537 -0.0287962 -0.027018 -0.0319814 -0.0287962 -0.0329294 -0.0319814 -0.0364609 -0.0181821 -0.0203951 -0.0194739 -0.021834 -0.0203951 -0.0223725 -0.021834 -0.0239411 -0.0194739 -0.021834 -0.0209905 -0.0235197 -0.021834 -0.0239411 -0.0235197 -0.025775 -0.0223725 -0.0240946 -0.0239411 -0.0257756 -0.0240946 -0.025545 -0.0257756 -0.0273213 -0.0239411 -0.0257756 -0.025775 -0.0277373 -0.0257756 -0.0273213 -0.0277373 -0.0293912 -0.0209905 -0.0235197 -0.0227571 -0.0254777 -0.0235197 -0.025775 -0.0254777 -0.0278996 -0.0227571 -0.0254777 -0.0248 -0.027734 -0.0254777 -0.0278996 -0.027734 -0.03034 -0.025775 -0.0277373 -0.0278996 -0.0300047 -0.0277373 -0.0293912 -0.0300047 -0.031779 -0.0278996 -0.0300047 -0.03034 -0.0326015 -0.0300047 -0.031779 -0.0326015 -0.0345069 -0.025545 -0.0267099 -0.0273213 -0.0285649 -0.0267099 -0.0275781 -0.0285649 -0.0294956 -0.0273213 -0.0285649 -0.0293912 -0.0307242 -0.0285649 -0.0294956 -0.0307242 -0.031726 -0.0275781 -0.0281405 -0.0294956 -0.0301041 -0.0281405 -0.02839 -0.0301041 -0.0303833 -0.0294956 -0.0301041 -0.031726 -0.032388 -0.0301041 -0.0303833 -0.032388 -0.0327027 -0.0293912 -0.0307242 -0.031779 -0.0332114 -0.0307242 -0.031726 -0.0332114 -0.0342929 -0.031779 -0.0332114 -0.0345069 -0.0360475 -0.0332114 -0.0342929 -0.0360475 -0.0372165 -0.031726 -0.032388 -0.0342929 -0.0350158 -0.032388 -0.0327027 -0.0350158 -0.0353726 -0.0342929 -0.0350158 -0.0372165 -0.0380075 -0.0350158 -0.0353726 -0.0380075 -0.0384135 -0.0248 -0.027734 -0.0271499 -0.0303187 -0.027734 -0.03034 -0.0303187 -0.0331242 -0.0271499 -0.0303187 -0.0298445 -0.0332668 -0.0303187 -0.0331242 -0.0332668 -0.036284 -0.03034 -0.0326015 -0.0331242 -0.0355533 -0.0326015 -0.0345069 -0.0355533 -0.037598 -0.0331242 -0.0355533 -0.036284 -0.0388881 -0.0355533 -0.037598 -0.0388881 -0.0410766 -0.0298445 -0.0332668 -0.0329294 -0.0366203 -0.0332668 -0.036284 -0.0366203 -0.0398563 -0.0329294 -0.0366203 -0.0364609 -0.0404292 -0.0366203 -0.0398563 -0.0404292 -0.0438832 -0.036284 -0.0388881 -0.0398563 -0.0426369 -0.0388881 -0.0410766 -0.0426369 -0.0449681 -0.0398563 -0.0426369 -0.0438832 -0.0468336 -0.0426369 -0.0449681 -0.0468336 -0.0492982 -0.0345069 -0.0360475 -0.037598 -0.0392535 -0.0360475 -0.0372165 -0.0392535 -0.0405162 -0.037598 -0.0392535 -0.0410766 -0.0428504 -0.0392535 -0.0405162 -0.0428504 -0.0442105 -0.0372165 -0.0380075 -0.0405162 -0.0413819 -0.0380075 -0.0384135 -0.0413819 -0.0418451 -0.0405162 -0.0413819 -0.0442105 -0.0451567 -0.0413819 -0.0418451 -0.0451567 -0.0456851 -0.0410766 -0.0428504 -0.0449681 -0.0468586 -0.0428504 -0.0442105 -0.0468586 -0.0483165 -0.0449681 -0.0468586 -0.0492982 -0.0512969 -0.0468586 -0.0483165 -0.0512969 -0.0528473 -0.0442105 -0.0451567 -0.0483165 -0.0493465 -0.0451567 -0.0456851 -0.0493465 -0.0499482 -0.0483165 -0.0493465 -0.0528473 -0.0539616 -0.0493465 -0.0499482 -0.0539616 -0.054644 -0.000133688 -0.000133788 -0.00958776 -0.00955764 -0.000133788 -0.000132029 -0.00955764 -0.00941177 -0.00958776 -0.00955764 -0.0158994 -0.0158437 -0.00955764 -0.00941177 -0.0158437 -0.0155988 -0.000132029 -0.000128392 -0.00941177 -0.00915062 -0.000128392 -0.00012288 -0.00915062 -0.00877598 -0.00941177 -0.00915062 -0.0155988 -0.0151659 -0.00915062 -0.00877598 -0.0151659 -0.014548 -0.0158994 -0.0158437 -0.0197791 -0.0197058 -0.0158437 -0.0155988 -0.0197058 -0.0193998 -0.0197791 -0.0197058 -0.0221536 -0.022071 -0.0197058 -0.0193998 -0.022071 -0.0217298 -0.0155988 -0.0151659 -0.0193998 -0.0188625 -0.0151659 -0.014548 -0.0188625 -0.0180979 -0.0193998 -0.0188625 -0.0217298 -0.0211316 -0.0188625 -0.0180979 -0.0211316 -0.0202806 -0.00012288 -0.000115524 -0.00877598 -0.008291 -0.000115524 -0.000106378 -0.008291 -0.00770019 -0.00877598 -0.008291 -0.014548 -0.0137505 -0.008291 -0.00770019 -0.0137505 -0.0127809 -0.000106378 -9.55174e-05 -0.00770019 -0.00700954 -9.55174e-05 -8.30352e-05 -0.00700954 -0.00622653 -0.00770019 -0.00700954 -0.0127809 -0.0116493 -0.00700954 -0.00622653 -0.0116493 -0.0103683 -0.014548 -0.0137505 -0.0180979 -0.0171125 -0.0137505 -0.0127809 -0.0171125 -0.0159158 -0.0180979 -0.0171125 -0.0202806 -0.0191839 -0.0171125 -0.0159158 -0.0191839 -0.0178519 -0.0127809 -0.0116493 -0.0159158 -0.0145201 -0.0116493 -0.0103683 -0.0145201 -0.0129413 -0.0159158 -0.0145201 -0.0178519 -0.0162982 -0.0145201 -0.0129413 -0.0162982 -0.01454 -0.0221536 -0.022071 -0.0237902 -0.0237049 -0.022071 -0.0217298 -0.0237049 -0.0233437 -0.0237902 -0.0237049 -0.0252029 -0.0251196 -0.0237049 -0.0233437 -0.0251196 -0.0247459 -0.0217298 -0.0211316 -0.0233437 -0.0227079 -0.0211316 -0.0202806 -0.0227079 -0.0218017 -0.0233437 -0.0227079 -0.0247459 -0.0240827 -0.0227079 -0.0218017 -0.0240827 -0.0231336 -0.0252029 -0.0251196 -0.0266866 -0.026609 -0.0251196 -0.0247459 -0.026609 -0.0262263 -0.0266866 -0.026609 -0.02839 -0.0283213 -0.026609 -0.0262263 -0.0283213 -0.0279312 -0.0247459 -0.0240827 -0.0262263 -0.0255384 -0.0240827 -0.0231336 -0.0255384 -0.0245484 -0.0262263 -0.0255384 -0.0279312 -0.0272186 -0.0255384 -0.0245484 -0.0272186 -0.026185 -0.0202806 -0.0191839 -0.0218017 -0.0206323 -0.0191839 -0.0178519 -0.0206323 -0.0192101 -0.0218017 -0.0206323 -0.0231336 -0.0219054 -0.0206323 -0.0192101 -0.0219054 -0.0204081 -0.0178519 -0.0162982 -0.0192101 -0.0175492 -0.0162982 -0.01454 -0.0175492 -0.0156676 -0.0192101 -0.0175492 -0.0204081 -0.0186558 -0.0175492 -0.0156676 -0.0186558 -0.0166668 -0.0231336 -0.0219054 -0.0245484 -0.0232619 -0.0219054 -0.0204081 -0.0232619 -0.0216884 -0.0245484 -0.0232619 -0.026185 -0.0248351 -0.0232619 -0.0216884 -0.0248351 -0.023177 -0.0204081 -0.0186558 -0.0216884 -0.0198415 -0.0186558 -0.0166668 -0.0198415 -0.0177393 -0.0216884 -0.0198415 -0.023177 -0.0212233 -0.0198415 -0.0177393 -0.0212233 -0.0189919 -8.30352e-05 -6.89849e-05 -0.00622653 -0.00536072 -6.89849e-05 -5.3517e-05 -0.00536072 -0.00442446 -0.00622653 -0.00536072 -0.0103683 -0.0089541 -0.00536072 -0.00442446 -0.0089541 -0.00742839 -5.3517e-05 -3.61805e-05 -0.00442446 -0.0034414 -3.61805e-05 -1.97457e-05 -0.0034414 -0.00242962 -0.00442446 -0.0034414 -0.00742839 -0.00582863 -0.0034414 -0.00242962 -0.00582863 -0.00419117 -0.0103683 -0.0089541 -0.0129413 -0.0111995 -0.0089541 -0.00742839 -0.0111995 -0.00932186 -0.0129413 -0.0111995 -0.01454 -0.0126 -0.0111995 -0.00932186 -0.0126 -0.0105076 -0.00742839 -0.00582863 -0.00932186 -0.00735275 -0.00582863 -0.00419117 -0.00735275 -0.00533802 -0.00932186 -0.00735275 -0.0105076 -0.00831063 -0.00735275 -0.00533802 -0.00831063 -0.00605919 -1.97457e-05 -2.08903e-06 -0.00242962 -0.001544 -2.08903e-06 6.69129e-05 -0.001544 -0.000352007 -0.00242962 -0.001544 -0.00419117 -0.00271572 -0.001544 -0.000352007 -0.00271572 -0.000947741 6.69129e-05 -3.2167e-05 -0.000352007 -0.00173445 -3.2167e-05 0.0134165 -0.00173445 0.0119283 -0.000352007 -0.00173445 -0.000947741 -0.00200719 -0.00173445 0.0119283 -0.00200719 0.0125265 -0.00419117 -0.00271572 -0.00533802 -0.00349116 -0.00271572 -0.000947741 -0.00349116 -0.0013668 -0.00533802 -0.00349116 -0.00605919 -0.00397382 -0.00349116 -0.0013668 -0.00397382 -0.00162156 -0.000947741 -0.00200719 -0.0013668 -0.00217401 -0.00200719 0.0125265 -0.00217401 0.012436 -0.0013668 -0.00217401 -0.00162156 -0.00225757 -0.00217401 0.012436 -0.00225757 0.0124639 -0.01454 -0.0126 -0.0156676 -0.0135889 -0.0126 -0.0105076 -0.0135889 -0.0113441 -0.0156676 -0.0135889 -0.0166668 -0.0144653 -0.0135889 -0.0113441 -0.0144653 -0.0120834 -0.0105076 -0.00831063 -0.0113441 -0.00898303 -0.00831063 -0.00605919 -0.00898303 -0.00655884 -0.0113441 -0.00898303 -0.0120834 -0.00957339 -0.00898303 -0.00655884 -0.00957339 -0.00699209 -0.0166668 -0.0144653 -0.0177393 -0.0154066 -0.0144653 -0.0120834 -0.0154066 -0.012877 -0.0177393 -0.0154066 -0.0189919 -0.0165079 -0.0154066 -0.012877 -0.0165079 -0.0138067 -0.0120834 -0.00957339 -0.012877 -0.0102056 -0.00957339 -0.00699209 -0.0102056 -0.00745451 -0.012877 -0.0102056 -0.0138067 -0.0109472 -0.0102056 -0.00745451 -0.0109472 -0.00799805 -0.00605919 -0.00397382 -0.00655884 -0.00430014 -0.00397382 -0.00162156 -0.00430014 -0.0017812 -0.00655884 -0.00430014 -0.00699209 -0.00457879 -0.00430014 -0.0017812 -0.00457879 -0.00191125 -0.00162156 -0.00225757 -0.0017812 -0.00232085 -0.00225757 0.0124639 -0.00232085 0.0126041 -0.0017812 -0.00232085 -0.00191125 -0.00239076 -0.00232085 0.0126041 -0.00239076 0.0128406 -0.00699209 -0.00457879 -0.00745451 -0.00487622 -0.00457879 -0.00191125 -0.00487622 -0.00204833 -0.00745451 -0.00487622 -0.00799805 -0.00522768 -0.00487622 -0.00204833 -0.00522768 -0.00221076 -0.00191125 -0.00239076 -0.00204833 -0.00247757 -0.00239076 0.0128406 -0.00247757 0.0131769 -0.00204833 -0.00247757 -0.00221076 -0.00258712 -0.00247757 0.0131769 -0.00258712 0.0136156 -0.02839 -0.0283213 -0.0303833 -0.0303271 -0.0283213 -0.0279312 -0.0303271 -0.0299313 -0.0303833 -0.0303271 -0.0327027 -0.0326635 -0.0303271 -0.0299313 -0.0326635 -0.0322648 -0.0279312 -0.0272186 -0.0299313 -0.0291934 -0.0272186 -0.026185 -0.0291934 -0.0281131 -0.0299313 -0.0291934 -0.0322648 -0.0315022 -0.0291934 -0.0281131 -0.0315022 -0.030373 -0.0327027 -0.0326635 -0.0353726 -0.035356 -0.0326635 -0.0322648 -0.035356 -0.0349589 -0.0353726 -0.035356 -0.0384135 -0.0384268 -0.035356 -0.0349589 -0.0384268 -0.0380384 -0.0322648 -0.0315022 -0.0349589 -0.0341744 -0.0315022 -0.030373 -0.0341744 -0.0329967 -0.0349589 -0.0341744 -0.0380384 -0.0372381 -0.0341744 -0.0329967 -0.0372381 -0.0360158 -0.026185 -0.0248351 -0.0281131 -0.0266931 -0.0248351 -0.023177 -0.0266931 -0.0249397 -0.0281131 -0.0266931 -0.030373 -0.0288771 -0.0266931 -0.0249397 -0.0288771 -0.0270183 -0.023177 -0.0212233 -0.0249397 -0.022864 -0.0212233 -0.0189919 -0.022864 -0.020483 -0.0249397 -0.022864 -0.0270183 -0.024805 -0.022864 -0.020483 -0.024805 -0.022253 -0.030373 -0.0288771 -0.0329967 -0.0314218 -0.0288771 -0.0270183 -0.0314218 -0.0294493 -0.0329967 -0.0314218 -0.0360158 -0.0343626 -0.0314218 -0.0294493 -0.0343626 -0.0322722 -0.0270183 -0.024805 -0.0294493 -0.0270844 -0.024805 -0.022253 -0.0270844 -0.0243398 -0.0294493 -0.0270844 -0.0322722 -0.0297443 -0.0270844 -0.0243398 -0.0297443 -0.026787 -0.0384135 -0.0384268 -0.0418451 -0.0418973 -0.0384268 -0.0380384 -0.0418973 -0.0415275 -0.0418451 -0.0418973 -0.0456851 -0.0457874 -0.0418973 -0.0415275 -0.0457874 -0.0454502 -0.0380384 -0.0372381 -0.0415275 -0.0407218 -0.0372381 -0.0360158 -0.0407218 -0.0394644 -0.0415275 -0.0407218 -0.0454502 -0.044655 -0.0407218 -0.0394644 -0.044655 -0.0433789 -0.0456851 -0.0457874 -0.0499482 -0.0501139 -0.0457874 -0.0454502 -0.0501139 -0.0498279 -0.0499482 -0.0501139 -0.054644 -0.0548886 -0.0501139 -0.0498279 -0.0548886 -0.0546778 -0.0454502 -0.044655 -0.0498279 -0.0490663 -0.044655 -0.0433789 -0.0490663 -0.0477973 -0.0498279 -0.0490663 -0.0546778 -0.0539815 -0.0490663 -0.0477973 -0.0539815 -0.0527576 -0.0360158 -0.0343626 -0.0394644 -0.0377393 -0.0343626 -0.0322722 -0.0377393 -0.0355323 -0.0394644 -0.0377393 -0.0433789 -0.0415964 -0.0377393 -0.0355323 -0.0415964 -0.0392825 -0.0322722 -0.0297443 -0.0355323 -0.0328348 -0.0297443 -0.026787 -0.0328348 -0.0296478 -0.0355323 -0.0328348 -0.0392825 -0.0364165 -0.0328348 -0.0296478 -0.0364165 -0.0329882 -0.0433789 -0.0415964 -0.0477973 -0.0459833 -0.0415964 -0.0392825 -0.0459833 -0.0435842 -0.0477973 -0.0459833 -0.0527576 -0.0509531 -0.0459833 