# vtk DataFile Version 3.0
#This file was generated by the deal.II library on 2026/1/5 at 14:19:31
ASCII
DATASET UNSTRUCTURED_GRID

POINTS 4096 double
0 0 0
0.03125 0 0
0 0.03125 0
0.03125 0.03125 0
0.03125 0 0
0.0625 0 0
0.03125 0.03125 0
0.0625 0.03125 0
0 0.03125 0
0.03125 0.03125 0
0 0.0625 0
0.03125 0.0625 0
0.03125 0.03125 0
0.0625 0.03125 0
0.03125 0.0625 0
0.0625 0.0625 0
0.0625 0 0
0.09375 0 0
0.0625 0.03125 0
0.09375 0.03125 0
0.09375 0 0
0.125 0 0
0.09375 0.03125 0
0.125 0.03125 0
0.0625 0.03125 0
0.09375 0.03125 0
0.0625 0.0625 0
0.09375 0.0625 0
0.09375 0.03125 0
0.125 0.03125 0
0.09375 0.0625 0
0.125 0.0625 0
0 0.0625 0
0.03125 0.0625 0
0 0.09375 0
0.03125 0.09375 0
0.03125 0.0625 0
0.0625 0.0625 0
0.03125 0.09375 0
0.0625 0.09375 0
0 0.09375 0
0.03125 0.09375 0
0 0.125 0
0.03125 0.125 0
0.03125 0.09375 0
0.0625 0.09375 0
0.03125 0.125 0
0.0625 0.125 0
0.0625 0.0625 0
0.09375 0.0625 0
0.0625 0.09375 0
0.09375 0.09375 0
0.09375 0.0625 0
0.125 0.0625 0
0.09375 0.09375 0
0.125 0.09375 0
0.0625 0.09375 0
0.09375 0.09375 0
0.0625 0.125 0
0.09375 0.125 0
0.09375 0.09375 0
0.125 0.09375 0
0.09375 0.125 0
0.125 0.125 0
0.125 0 0
0.15625 0 0
0.125 0.03125 0
0.15625 0.03125 0
0.15625 0 0
0.1875 0 0
0.15625 0.03125 0
0.1875 0.03125 0
0.125 0.03125 0
0.15625 0.03125 0
0.125 0.0625 0
0.15625 0.0625 0
0.15625 0.03125 0
0.1875 0.03125 0
0.15625 0.0625 0
0.1875 0.0625 0
0.1875 0 0
0.21875 0 0
0.1875 0.03125 0
0.21875 0.03125 0
0.21875 0 0
0.25 0 0
0.21875 0.03125 0
0.25 0.03125 0
0.1875 0.03125 0
0.21875 0.03125 0
0.1875 0.0625 0
0.21875 0.0625 0
0.21875 0.03125 0
0.25 0.03125 0
0.21875 0.0625 0
0.25 0.0625 0
0.125 0.0625 0
0.15625 0.0625 0
0.125 0.09375 0
0.15625 0.09375 0
0.15625 0.0625 0
0.1875 0.0625 0
0.15625 0.09375 0
0.1875 0.09375 0
0.125 0.09375 0
0.15625 0.09375 0
0.125 0.125 0
0.15625 0.125 0
0.15625 0.09375 0
0.1875 0.09375 0
0.15625 0.125 0
0.1875 0.125 0
0.1875 0.0625 0
0.21875 0.0625 0
0.1875 0.09375 0
0.21875 0.09375 0
0.21875 0.0625 0
0.25 0.0625 0
0.21875 0.09375 0
0.25 0.09375 0
0.1875 0.09375 0
0.21875 0.09375 0
0.1875 0.125 0
0.21875 0.125 0
0.21875 0.09375 0
0.25 0.09375 0
0.21875 0.125 0
0.25 0.125 0
0 0.125 0
0.03125 0.125 0
0 0.15625 0
0.03125 0.15625 0
0.03125 0.125 0
0.0625 0.125 0
0.03125 0.15625 0
0.0625 0.15625 0
0 0.15625 0
0.03125 0.15625 0
0 0.1875 0
0.03125 0.1875 0
0.03125 0.15625 0
0.0625 0.15625 0
0.03125 0.1875 0
0.0625 0.1875 0
0.0625 0.125 0
0.09375 0.125 0
0.0625 0.15625 0
0.09375 0.15625 0
0.09375 0.125 0
0.125 0.125 0
0.09375 0.15625 0
0.125 0.15625 0
0.0625 0.15625 0
0.09375 0.15625 0
0.0625 0.1875 0
0.09375 0.1875 0
0.09375 0.15625 0
0.125 0.15625 0
0.09375 0.1875 0
0.125 0.1875 0
0 0.1875 0
0.03125 0.1875 0
0 0.21875 0
0.03125 0.21875 0
0.03125 0.1875 0
0.0625 0.1875 0
0.03125 0.21875 0
0.0625 0.21875 0
0 0.21875 0
0.03125 0.21875 0
0 0.25 0
0.03125 0.25 0
0.03125 0.21875 0
0.0625 0.21875 0
0.03125 0.25 0
0.0625 0.25 0
0.0625 0.1875 0
0.09375 0.1875 0
0.0625 0.21875 0
0.09375 0.21875 0
0.09375 0.1875 0
0.125 0.1875 0
0.09375 0.21875 0
0.125 0.21875 0
0.0625 0.21875 0
0.09375 0.21875 0
0.0625 0.25 0
0.09375 0.25 0
0.09375 0.21875 0
0.125 0.21875 0
0.09375 0.25 0
0.125 0.25 0
0.125 0.125 0
0.15625 0.125 0
0.125 0.15625 0
0.15625 0.15625 0
0.15625 0.125 0
0.1875 0.125 0
0.15625 0.15625 0
0.1875 0.15625 0
0.125 0.15625 0
0.15625 0.15625 0
0.125 0.1875 0
0.15625 0.1875 0
0.15625 0.15625 0
0.1875 0.15625 0
0.15625 0.1875 0
0.1875 0.1875 0
0.1875 0.125 0
0.21875 0.125 0
0.1875 0.15625 0
0.21875 0.15625 0
0.21875 0.125 0
0.25 0.125 0
0.21875 0.15625 0
0.25 0.15625 0
0.1875 0.15625 0
0.21875 0.15625 0
0.1875 0.1875 0
0.21875 0.1875 0
0.21875 0.15625 0
0.25 0.15625 0
0.21875 0.1875 0
0.25 0.1875 0
0.125 0.1875 0
0.15625 0.1875 0
0.125 0.21875 0
0.15625 0.21875 0
0.15625 0.1875 0
0.1875 0.1875 0
0.15625 0.21875 0
0.1875 0.21875 0
0.125 0.21875 0
0.15625 0.21875 0
0.125 0.25 0
0.15625 0.25 0
0.15625 0.21875 0
0.1875 0.21875 0
0.15625 0.25 0
0.1875 0.25 0
0.1875 0.1875 0
0.21875 0.1875 0
0.1875 0.21875 0
0.21875 0.21875 0
0.21875 0.1875 0
0.25 0.1875 0
0.21875 0.21875 0
0.25 0.21875 0
0.1875 0.21875 0
0.21875 0.21875 0
0.1875 0.25 0
0.21875 0.25 0
0.21875 0.21875 0
0.25 0.21875 0
0.21875 0.25 0
0.25 0.25 0
0.25 0 0
0.28125 0 0
0.25 0.03125 0
0.28125 0.03125 0
0.28125 0 0
0.3125 0 0
0.28125 0.03125 0
0.3125 0.03125 0
0.25 0.03125 0
0.28125 0.03125 0
0.25 0.0625 0
0.28125 0.0625 0
0.28125 0.03125 0
0.3125 0.03125 0
0.28125 0.0625 0
0.3125 0.0625 0
0.3125 0 0
0.34375 0 0
0.3125 0.03125 0
0.34375 0.03125 0
0.34375 0 0
0.375 0 0
0.34375 0.03125 0
0.375 0.03125 0
0.3125 0.03125 0
0.34375 0.03125 0
0.3125 0.0625 0
0.34375 0.0625 0
0.34375 0.03125 0
0.375 0.03125 0
0.34375 0.0625 0
0.375 0.0625 0
0.25 0.0625 0
0.28125 0.0625 0
0.25 0.09375 0
0.28125 0.09375 0
0.28125 0.0625 0
0.3125 0.0625 0
0.28125 0.09375 0
0.3125 0.09375 0
0.25 0.09375 0
0.28125 0.09375 0
0.25 0.125 0
0.28125 0.125 0
0.28125 0.09375 0
0.3125 0.09375 0
0.28125 0.125 0
0.3125 0.125 0
0.3125 0.0625 0
0.34375 0.0625 0
0.3125 0.09375 0
0.34375 0.09375 0
0.34375 0.0625 0
0.375 0.0625 0
0.34375 0.09375 0
0.375 0.09375 0
0.3125 0.09375 0
0.34375 0.09375 0
0.3125 0.125 0
0.34375 0.125 0
0.34375 0.09375 0
0.375 0.09375 0
0.34375 0.125 0
0.375 0.125 0
0.375 0 0
0.40625 0 0
0.375 0.03125 0
0.40625 0.03125 0
0.40625 0 0
0.4375 0 0
0.40625 0.03125 0
0.4375 0.03125 0
0.375 0.03125 0
0.40625 0.03125 0
0.375 0.0625 0
0.40625 0.0625 0
0.40625 0.03125 0
0.4375 0.03125 0
0.40625 0.0625 0
0.4375 0.0625 0
0.4375 0 0
0.46875 0 0
0.4375 0.03125 0
0.46875 0.03125 0
0.46875 0 0
0.5 0 0
0.46875 0.03125 0
0.5 0.03125 0
0.4375 0.03125 0
0.46875 0.03125 0
0.4375 0.0625 0
0.46875 0.0625 0
0.46875 0.03125 0
0.5 0.03125 0
0.46875 0.0625 0
0.5 0.0625 0
0.375 0.0625 0
0.40625 0.0625 0
0.375 0.09375 0
0.40625 0.09375 0
0.40625 0.0625 0
0.4375 0.0625 0
0.40625 0.09375 0
0.4375 0.09375 0
0.375 0.09375 0
0.40625 0.09375 0
0.375 0.125 0
0.40625 0.125 0
0.40625 0.09375 0
0.4375 0.09375 0
0.40625 0.125 0
0.4375 0.125 0
0.4375 0.0625 0
0.46875 0.0625 0
0.4375 0.09375 0
0.46875 0.09375 0
0.46875 0.0625 0
0.5 0.0625 0
0.46875 0.09375 0
0.5 0.09375 0
0.4375 0.09375 0
0.46875 0.09375 0
0.4375 0.125 0
0.46875 0.125 0
0.46875 0.09375 0
0.5 0.09375 0
0.46875 0.125 0
0.5 0.125 0
0.25 0.125 0
0.28125 0.125 0
0.25 0.15625 0
0.28125 0.15625 0
0.28125 0.125 0
0.3125 0.125 0
0.28125 0.15625 0
0.3125 0.15625 0
0.25 0.15625 0
0.28125 0.15625 0
0.25 0.1875 0
0.28125 0.1875 0
0.28125 0.15625 0
0.3125 0.15625 0
0.28125 0.1875 0
0.3125 0.1875 0
0.3125 0.125 0
0.34375 0.125 0
0.3125 0.15625 0
0.34375 0.15625 0
0.34375 0.125 0
0.375 0.125 0
0.34375 0.15625 0
0.375 0.15625 0
0.3125 0.15625 0
0.34375 0.15625 0
0.3125 0.1875 0
0.34375 0.1875 0
0.34375 0.15625 0
0.375 0.15625 0
0.34375 0.1875 0
0.375 0.1875 0
0.25 0.1875 0
0.28125 0.1875 0
0.25 0.21875 0
0.28125 0.21875 0
0.28125 0.1875 0
0.3125 0.1875 0
0.28125 0.21875 0
0.3125 0.21875 0
0.25 0.21875 0
0.28125 0.21875 0
0.25 0.25 0
0.28125 0.25 0
0.28125 0.21875 0
0.3125 0.21875 0
0.28125 0.25 0
0.3125 0.25 0
0.3125 0.1875 0
0.34375 0.1875 0
0.3125 0.21875 0
0.34375 0.21875 0
0.34375 0.1875 0
0.375 0.1875 0
0.34375 0.21875 0
0.375 0.21875 0
0.3125 0.21875 0
0.34375 0.21875 0
0.3125 0.25 0
0.34375 0.25 0
0.34375 0.21875 0
0.375 0.21875 0
0.34375 0.25 0
0.375 0.25 0
0.375 0.125 0
0.40625 0.125 0
0.375 0.15625 0
0.40625 0.15625 0
0.40625 0.125 0
0.4375 0.125 0
0.40625 0.15625 0
0.4375 0.15625 0
0.375 0.15625 0
0.40625 0.15625 0
0.375 0.1875 0
0.40625 0.1875 0
0.40625 0.15625 0
0.4375 0.15625 0
0.40625 0.1875 0
0.4375 0.1875 0
0.4375 0.125 0
0.46875 0.125 0
0.4375 0.15625 0
0.46875 0.15625 0
0.46875 0.125 0
0.5 0.125 0
0.46875 0.15625 0
0.5 0.15625 0
0.4375 0.15625 0
0.46875 0.15625 0
0.4375 0.1875 0
0.46875 0.1875 0
0.46875 0.15625 0
0.5 0.15625 0
0.46875 0.1875 0
0.5 0.1875 0
0.375 0.1875 0
0.40625 0.1875 0
0.375 0.21875 0
0.40625 0.21875 0
0.40625 0.1875 0
0.4375 0.1875 0
0.40625 0.21875 0
0.4375 0.21875 0
0.375 0.21875 0
0.40625 0.21875 0
0.375 0.25 0
0.40625 0.25 0
0.40625 0.21875 0
0.4375 0.21875 0
0.40625 0.25 0
0.4375 0.25 0
0.4375 0.1875 0
0.46875 0.1875 0
0.4375 0.21875 0
0.46875 0.21875 0
0.46875 0.1875 0
0.5 0.1875 0
0.46875 0.21875 0
0.5 0.21875 0
0.4375 0.21875 0
0.46875 0.21875 0
0.4375 0.25 0
0.46875 0.25 0
0.46875 0.21875 0
0.5 0.21875 0
0.46875 0.25 0
0.5 0.25 0
0 0.25 0
0.03125 0.25 0
0 0.28125 0
0.03125 0.28125 0
0.03125 0.25 0
0.0625 0.25 0
0.03125 0.28125 0
0.0625 0.28125 0
0 0.28125 0
0.03125 0.28125 0
0 0.3125 0
0.03125 0.3125 0
0.03125 0.28125 0
0.0625 0.28125 0
0.03125 0.3125 0
0.0625 0.3125 0
0.0625 0.25 0
0.09375 0.25 0
0.0625 0.28125 0
0.09375 0.28125 0
0.09375 0.25 0
0.125 0.25 0
0.09375 0.28125 0
0.125 0.28125 0
0.0625 0.28125 0
0.09375 0.28125 0
0.0625 0.3125 0
0.09375 0.3125 0
0.09375 0.28125 0
0.125 0.28125 0
0.09375 0.3125 0
0.125 0.3125 0
0 0.3125 0
0.03125 0.3125 0
0 0.34375 0
0.03125 0.34375 0
0.03125 0.3125 0
0.0625 0.3125 0
0.03125 0.34375 0
0.0625 0.34375 0
0 0.34375 0
0.03125 0.34375 0
0 0.375 0
0.03125 0.375 0
0.03125 0.34375 0
0.0625 0.34375 0
0.03125 0.375 0
0.0625 0.375 0
0.0625 0.3125 0
0.09375 0.3125 0
0.0625 0.34375 0
0.09375 0.34375 0
0.09375 0.3125 0
0.125 0.3125 0
0.09375 0.34375 0
0.125 0.34375 0
0.0625 0.34375 0
0.09375 0.34375 0
0.0625 0.375 0
0.09375 0.375 0
0.09375 0.34375 0
0.125 0.34375 0
0.09375 0.375 0
0.125 0.375 0
0.125 0.25 0
0.15625 0.25 0
0.125 0.28125 0
0.15625 0.28125 0
0.15625 0.25 0
0.1875 0.25 0
0.15625 0.28125 0
0.1875 0.28125 0
0.125 0.28125 0
0.15625 0.28125 0
0.125 0.3125 0
0.15625 0.3125 0
0.15625 0.28125 0
0.1875 0.28125 0
0.15625 0.3125 0
0.1875 0.3125 0
0.1875 0.25 0
0.21875 0.25 0
0.1875 0.28125 0
0.21875 0.28125 0
0.21875 0.25 0
0.25 0.25 0
0.21875 0.28125 0
0.25 0.28125 0
0.1875 0.28125 0
0.21875 0.28125 0
0.1875 0.3125 0
0.21875 0.3125 0
0.21875 0.28125 0
0.25 0.28125 0
0.21875 0.3125 0
0.25 0.3125 0
0.125 0.3125 0
0.15625 0.3125 0
0.125 0.34375 0
0.15625 0.34375 0
0.15625 0.3125 0
0.1875 0.3125 0
0.15625 0.34375 0
0.1875 0.34375 0
0.125 0.34375 0
[...]
POINT_DATA 4096
SCALARS u_x double 1
LOOKUP_TABLE default
1.00587e-05 1.54828e-05 -5.05892e-05 -0.000123062 1.54828e-05 1.75639e-05 -0.000123062 -0.000583923 -5.05892e-05 -0.000123062 -0.000166447 -0.000311873 -0.000123062 -0.000583923 -0.000311873 -0.00120477 1.75639e-05 7.37882e-06 -0.000583923 -0.00131901 7.37882e-06 -7.28125e-06 -0.00131901 -0.00223137 -0.000583923 -0.00131901 -0.00120477 -0.00248458 -0.00131901 -0.00223137 -0.00248458 -0.00402392 -0.000166447 -0.000311873 -0.000247919 -0.00045187 -0.000311873 -0.00120477 -0.00045187 -0.0016732 -0.000247919 -0.00045187 -0.00025417 -0.000545752 -0.00045187 -0.0016732 -0.000545752 -0.00198388 -0.00120477 -0.00248458 -0.0016732 -0.00334996 -0.00248458 -0.00402392 -0.00334996 -0.00532193 -0.0016732 -0.00334996 -0.00198388 -0.00394087 -0.00334996 -0.00532193 -0.00394087 -0.00621298 -7.28125e-06 -2.26693e-05 -0.00223137 -0.00322112 -2.26693e-05 -3.73718e-05 -0.00322112 -0.00422082 -0.00223137 -0.00322112 -0.00402392 -0.0056798 -0.00322112 -0.00422082 -0.0056798 -0.00735198 -3.73718e-05 -5.10351e-05 -0.00422082 -0.00518871 -5.10351e-05 -6.36253e-05 -0.00518871 -0.00610001 -0.00422082 -0.00518871 -0.00735198 -0.00897345 -0.00518871 -0.00610001 -0.00897345 -0.0105018 -0.00402392 -0.0056798 -0.00532193 -0.00742189 -0.0056798 -0.00735198 -0.00742189 -0.009535 -0.00532193 -0.00742189 -0.00621298 -0.00861469 -0.00742189 -0.009535 -0.00861469 -0.0110217 -0.00735198 -0.00897345 -0.009535 -0.0115821 -0.00897345 -0.0105018 -0.0115821 -0.0135113 -0.009535 -0.0115821 -0.0110217 -0.013349 -0.0115821 -0.0135113 -0.013349 -0.0155402 -0.00025417 -0.000545752 -0.00017192 -0.000616379 -0.000545752 -0.00198388 -0.000616379 -0.00218872 -0.00017192 -0.000616379 1.73363e-06 -0.000683664 -0.000616379 -0.00218872 -0.000683664 -0.00234207 -0.00198388 -0.00394087 -0.00218872 -0.0043498 -0.00394087 -0.00621298 -0.0043498 -0.00684131 -0.00218872 -0.0043498 -0.00234207 -0.00467125 -0.0043498 -0.00684131 -0.00467125 -0.00734403 1.73363e-06 -0.000683664 0.00026769 -0.000760676 -0.000683664 -0.00234207 -0.000760676 -0.00248344 0.00026769 -0.000760676 0.000627858 -0.000855074 -0.000760676 -0.00248344 -0.000855074 -0.00263698 -0.00234207 -0.00467125 -0.00248344 -0.0049762 -0.00467125 -0.00734403 -0.0049762 -0.00782403 -0.00248344 -0.0049762 -0.00263698 -0.00530983 -0.0049762 -0.00782403 -0.00530983 -0.00834776 -0.00621298 -0.00861469 -0.00684131 -0.00946417 -0.00861469 -0.0110217 -0.00946417 -0.0120845 -0.00684131 -0.00946417 -0.00734403 -0.010153 -0.00946417 -0.0120845 -0.010153 -0.0129533 -0.0110217 -0.013349 -0.0120845 -0.0146131 -0.013349 -0.0155402 -0.0146131 -0.016991 -0.0120845 -0.0146131 -0.0129533 -0.0156514 -0.0146131 -0.016991 -0.0156514 -0.0181859 -0.00734403 -0.010153 -0.00782403 -0.0108159 -0.010153 -0.0129533 -0.0108159 -0.0137943 -0.00782403 -0.0108159 -0.00834776 -0.0115397 -0.0108159 -0.0137943 -0.0115397 -0.0147136 -0.0129533 -0.0156514 -0.0137943 -0.0166606 -0.0156514 -0.0181859 -0.0166606 -0.0193504 -0.0137943 -0.0166606 -0.0147136 -0.0177648 -0.0166606 -0.0193504 -0.0177648 -0.0206256 -6.36253e-05 -7.51601e-05 -0.00610001 -0.00693906 -7.51601e-05 -8.56191e-05 -0.00693906 -0.00769469 -0.00610001 -0.00693906 -0.0105018 -0.0119093 -0.00693906 -0.00769469 -0.0119093 -0.0131759 -8.56191e-05 -9.49367e-05 -0.00769469 -0.00835782 -9.49367e-05 -0.000103019 -0.00835782 -0.00892054 -0.00769469 -0.00835782 -0.0131759 -0.0142857 -0.00835782 -0.00892054 -0.0142857 -0.0152253 -0.0105018 -0.0119093 -0.0135113 -0.0152873 -0.0119093 -0.0131759 -0.0152873 -0.0168845 -0.0135113 -0.0152873 -0.0155402 -0.0175561 -0.0152873 -0.0168845 -0.0175561 -0.0193679 -0.0131759 -0.0142857 -0.0168845 -0.0182824 -0.0142857 -0.0152253 -0.0182824 -0.019464 -0.0168845 -0.0182824 -0.0193679 -0.0209525 -0.0182824 -0.019464 -0.0209525 -0.022291 -0.000103019 -0.000109758 -0.00892054 -0.00937591 -0.000109758 -0.000115044 -0.00937591 -0.00971787 -0.00892054 -0.00937591 -0.0152253 -0.0159832 -0.00937591 -0.00971787 -0.0159832 -0.0165496 -0.000115044 -0.000118775 -0.00971787 -0.00994142 -0.000118775 -0.000120859 -0.00994142 -0.0100426 -0.00971787 -0.00994142 -0.0165496 -0.0169164 -0.00994142 -0.0100426 -0.0169164 -0.0170776 -0.0152253 -0.0159832 -0.019464 -0.0204151 -0.0159832 -0.0165496 -0.0204151 -0.0211235 -0.019464 -0.0204151 -0.022291 -0.0233672 -0.0204151 -0.0211235 -0.0233672 -0.0241678 -0.0165496 -0.0169164 -0.0211235 -0.0215795 -0.0169164 -0.0170776 -0.0215795 -0.0217758 -0.0211235 -0.0215795 -0.0241678 -0.024682 -0.0215795 -0.0217758 -0.024682 -0.0249019 -0.0155402 -0.0175561 -0.016991 -0.0191771 -0.0175561 -0.0193679 -0.0191771 -0.0211409 -0.016991 -0.0191771 -0.0181859 -0.0205144 -0.0191771 -0.0211409 -0.0205144 -0.0226055 -0.0193679 -0.0209525 -0.0211409 -0.0228581 -0.0209525 -0.022291 -0.0228581 -0.0243083 -0.0211409 -0.0228581 -0.0226055 -0.0244339 -0.0228581 -0.0243083 -0.0244339 -0.0259789 -0.0181859 -0.0205144 -0.0193504 -0.0218202 -0.0205144 -0.0226055 -0.0218202 -0.0240376 -0.0193504 -0.0218202 -0.0206256 -0.0232506 -0.0218202 -0.0240376 -0.0232506 -0.0256069 -0.0226055 -0.0244339 -0.0240376 -0.025977 -0.0244339 -0.0259789 -0.025977 -0.0276172 -0.0240376 -0.025977 -0.0256069 -0.0276684 -0.025977 -0.0276172 -0.0276684 -0.0294139 -0.022291 -0.0233672 -0.0243083 -0.0254746 -0.0233672 -0.0241678 -0.0254746 -0.0263427 -0.0243083 -0.0254746 -0.0259789 -0.0272228 -0.0254746 -0.0263427 -0.0272228 -0.028151 -0.0241678 -0.024682 -0.0263427 -0.0269014 -0.024682 -0.0249019 -0.0269014 -0.027142 -0.0263427 -0.0269014 -0.028151 -0.0287516 -0.0269014 -0.027142 -0.0287516 -0.0290154 -0.0259789 -0.0272228 -0.0276172 -0.0289403 -0.0272228 -0.028151 -0.0289403 -0.0299314 -0.0276172 -0.0289403 -0.0294139 -0.0308254 -0.0289403 -0.0299314 -0.0308254 -0.0318878 -0.028151 -0.0287516 -0.0299314 -0.030578 -0.0287516 -0.0290154 -0.030578 -0.0308705 -0.0299314 -0.030578 -0.0318878 -0.0325884 -0.030578 -0.0308705 -0.0325884 -0.0329167 0.000627858 -0.000855074 0.00108611 -0.000971273 -0.000855074 -0.00263698 -0.000971273 -0.0028162 0.00108611 -0.000971273 0.00164841 -0.00111226 -0.000971273 -0.0028162 -0.00111226 -0.00302897 -0.00263698 -0.00530983 -0.0028162 -0.00569859 -0.00530983 -0.00834776 -0.00569859 -0.00895491 -0.0028162 -0.00569859 -0.00302897 -0.00615861 -0.00569859 -0.00895491 -0.00615861 -0.0096701 0.00164841 -0.00111226 0.00232271 -0.00128074 -0.00111226 -0.00302897 -0.00128074 -0.00328111 0.00232271 -0.00128074 0.00311893 -0.0014798 -0.00128074 -0.00328111 -0.0014798 -0.00357857 -0.00302897 -0.00615861 -0.00328111 -0.00670211 -0.00615861 -0.0096701 -0.00670211 -0.010512 -0.00328111 -0.00670211 -0.00357857 -0.00734138 -0.00670211 -0.010512 -0.00734138 -0.011499 -0.00834776 -0.0115397 -0.00895491 -0.0123766 -0.0115397 -0.0147136 -0.0123766 -0.0157747 -0.00895491 -0.0123766 -0.0096701 -0.0133591 -0.0123766 -0.0157747 -0.0133591 -0.0170171 -0.0147136 -0.0177648 -0.0157747 -0.0190379 -0.0177648 -0.0206256 -0.0190379 -0.0220941 -0.0157747 -0.0190379 -0.0170171 -0.0205249 -0.0190379 -0.0220941 -0.0205249 -0.0238057 -0.0096701 -0.0133591 -0.010512 -0.0145119 -0.0133591 -0.0170171 -0.0145119 -0.0184702 -0.010512 -0.0145119 -0.011499 -0.0158587 -0.0145119 -0.0184702 -0.0158587 -0.0201618 -0.0170171 -0.0205249 -0.0184702 -0.0222587 -0.0205249 -0.0238057 -0.0222587 -0.0257957 -0.0184702 -0.0222587 -0.0201618 -0.0242701 -0.0222587 -0.0257957 -0.0242701 -0.028096 0.00311893 -0.0014798 0.00404905 -0.00171329 -0.0014798 -0.00357857 -0.00171329 -0.00392873 0.00404905 -0.00171329 0.00512739 -0.00198615 -0.00171329 -0.00392873 -0.00198615 -0.00434137 -0.00357857 -0.00734138 -0.00392873 -0.0080913 -0.00734138 -0.011499 -0.0080913 -0.0126529 -0.00392873 -0.0080913 -0.00434137 -0.00897117 -0.0080913 -0.0126529 -0.00897117 -0.0140017 0.00512739 -0.00198615 0.00637095 -0.00230479 -0.00198615 -0.00434137 -0.00230479 -0.00482976 0.00637095 -0.00230479 0.00779996 -0.00267764 -0.00230479 -0.00482976 -0.00267764 -0.00541218 -0.00434137 -0.00897117 -0.00482976 -0.0100067 -0.00897117 -0.0140017 -0.0100067 -0.0155822 -0.00482976 -0.0100067 -0.00541218 -0.0112329 -0.0100067 -0.0155822 -0.0112329 -0.0174434 -0.011499 -0.0158587 -0.0126529 -0.0174273 -0.0158587 -0.0201618 -0.0174273 -0.022124 -0.0126529 -0.0174273 -0.0140017 -0.0192526 -0.0174273 -0.022124 -0.0192526 -0.024396 -0.0201618 -0.0242701 -0.022124 -0.026593 -0.0242701 -0.028096 -0.026593 -0.0307412 -0.022124 -0.026593 -0.024396 -0.0292689 -0.026593 -0.0307412 -0.0292689 -0.0337721 -0.0140017 -0.0192526 -0.0155822 -0.0213797 -0.0192526 -0.024396 -0.0213797 -0.0270278 -0.0155822 -0.0213797 -0.0174434 -0.0238681 -0.0213797 -0.0270278 -0.0238681 -0.030084 -0.024396 -0.0292689 -0.0270278 -0.0323488 -0.0292689 -0.0337721 -0.0323488 -0.0372383 -0.0270278 -0.0323488 -0.030084 -0.0358977 -0.0323488 -0.0372383 -0.0358977 -0.0412005 -0.0206256 -0.0232506 -0.0220941 -0.0248962 -0.0232506 -0.0256069 -0.0248962 -0.0274105 -0.0220941 -0.0248962 -0.0238057 -0.0268104 -0.0248962 -0.0274105 -0.0268104 -0.0295047 -0.0256069 -0.0276684 -0.0274105 -0.0296109 -0.0276684 -0.0294139 -0.0296109 -0.0314764 -0.0274105 -0.0296109 -0.0295047 -0.031863 -0.0296109 -0.0314764 -0.031863 -0.0338646 -0.0238057 -0.0268104 -0.0257957 -0.0290299 -0.0268104 -0.0295047 -0.0290299 -0.031927 -0.0257957 -0.0290299 -0.028096 -0.0315868 -0.0290299 -0.031927 -0.0315868 -0.0347088 -0.0295047 -0.031863 -0.031927 -0.0344622 -0.031863 -0.0338646 -0.0344622 -0.0366164 -0.031927 -0.0344622 -0.0347088 -0.037439 -0.0344622 -0.0366164 -0.037439 -0.0397607 -0.0294139 -0.0308254 -0.0314764 -0.0329891 -0.0308254 -0.0318878 -0.0329891 -0.0341341 -0.0314764 -0.0329891 -0.0338646 -0.0354927 -0.0329891 -0.0341341 -0.0354927 -0.0367326 -0.0318878 -0.0325884 -0.0341341 -0.0348983 -0.0325884 -0.0329167 -0.0348983 -0.0352707 -0.0341341 -0.0348983 -0.0367326 -0.0375715 -0.0348983 -0.0352707 -0.0375715 -0.0379976 -0.0338646 -0.0354927 -0.0366164 -0.038374 -0.0354927 -0.0367326 -0.038374 -0.0397215 -0.0366164 -0.038374 -0.0397607 -0.0416609 -0.038374 -0.0397215 -0.0416609 -0.0431282 -0.0367326 -0.0375715 -0.0397215 -0.0406466 -0.0375715 -0.0379976 -0.0406466 -0.0411371 -0.0397215 -0.0406466 -0.0431282 -0.0441514 -0.0406466 -0.0411371 -0.0441514 -0.0447185 -0.028096 -0.0315868 -0.0307412 -0.0345148 -0.0315868 -0.0347088 -0.0345148 -0.0378817 -0.0307412 -0.0345148 -0.0337721 -0.0378523 -0.0345148 -0.0378817 -0.0378523 -0.0414808 -0.0347088 -0.037439 -0.0378817 -0.0408224 -0.037439 -0.0397607 -0.0408224 -0.0433242 -0.0378817 -0.0408224 -0.0414808 -0.0446435 -0.0408224 -0.0433242 -0.0446435 -0.0473338 -0.0337721 -0.0378523 -0.0372383 -0.0416447 -0.0378523 -0.0414808 -0.0416447 -0.0455458 -0.0372383 -0.0416447 -0.0412005 -0.0459461 -0.0416447 -0.0455458 -0.0459461 -0.050122 -0.0414808 -0.0446435 -0.0455458 -0.0489355 -0.0446435 -0.0473338 -0.0489355 -0.0518167 -0.0455458 -0.0489355 -0.050122 -0.0537347 -0.0489355 -0.0518167 -0.0537347 -0.0568 -0.0397607 -0.0416609 -0.0433242 -0.0453781 -0.0416609 -0.0431282 -0.0453781 -0.046976 -0.0433242 -0.0453781 -0.0473338 -0.0495489 -0.0453781 -0.046976 -0.0495489 -0.0512861 -0.0431282 -0.0441514 -0.046976 -0.0481092 -0.0441514 -0.0447185 -0.0481092 -0.0487664 -0.046976 -0.0481092 -0.0512861 -0.0525403 -0.0481092 -0.0487664 -0.0525403 -0.0533021 -0.0473338 -0.0495489 -0.0518167 -0.0541952 -0.0495489 -0.0512861 -0.0541952 -0.0560762 -0.0518167 -0.0541952 -0.0568 -0.0593363 -0.0541952 -0.0560762 -0.0593363 -0.0613596 -0.0512861 -0.0525403 -0.0560762 -0.0574605 -0.0525403 -0.0533021 -0.0574605 -0.0583421 -0.0560762 -0.0574605 -0.0613596 -0.0628796 -0.0574605 -0.0583421 -0.0628796 -0.0638958 -0.000120859 -0.000121219 -0.0100426 -0.0100188 -0.000121219 -0.000119795 -0.0100188 -0.00986856 -0.0100426 -0.0100188 -0.0170776 -0.0170291 -0.0100188 -0.00986856 -0.0170291 -0.016769 -0.000119795 -0.000116548 -0.00986856 -0.00959186 -0.000116548 -0.000111465 -0.00959186 -0.00919024 -0.00986856 -0.00959186 -0.016769 -0.0162977 -0.00959186 -0.00919024 -0.0162977 -0.0156182 -0.0170776 -0.0170291 -0.0217758 -0.0217078 -0.0170291 -0.016769 -0.0217078 -0.0213733 -0.0217758 -0.0217078 -0.0249019 -0.0248223 -0.0217078 -0.0213733 -0.0248223 -0.0244408 -0.016769 -0.0162977 -0.0213733 -0.0207732 -0.0162977 -0.0156182 -0.0207732 -0.0199114 -0.0213733 -0.0207732 -0.0244408 -0.0237586 -0.0207732 -0.0199114 -0.0237586 -0.0227798 -0.000111465 -0.000104561 -0.00919024 -0.00866681 -0.000104561 -9.58708e-05 -0.00866681 -0.00802638 -0.00919024 -0.00866681 -0.0156182 -0.014736 -0.00866681 -0.00802638 -0.014736 -0.0136595 -9.58708e-05 -8.54474e-05 -0.00802638 -0.00727561 -8.54474e-05 -7.33549e-05 -0.00727561 -0.00642346 -0.00802638 -0.00727561 -0.0136595 -0.0124004 -0.00727561 -0.00642346 -0.0124004 -0.0109744 -0.0156182 -0.014736 -0.0199114 -0.018795 -0.014736 -0.0136595 -0.018795 -0.017435 -0.0199114 -0.018795 -0.0227798 -0.0215126 -0.018795 -0.017435 -0.0215126 -0.019969 -0.0136595 -0.0124004 -0.017435 -0.0158462 -0.0124004 -0.0109744 -0.0158462 -0.0140488 -0.017435 -0.0158462 -0.019969 -0.0181659 -0.0158462 -0.0140488 -0.0181659 -0.016126 -0.0249019 -0.0248223 -0.027142 -0.0270589 -0.0248223 -0.0244408 -0.0270589 -0.0266494 -0.027142 -0.0270589 -0.0290154 -0.0289361 -0.0270589 -0.0266494 -0.0289361 -0.0285105 -0.0244408 -0.0237586 -0.0266494 -0.0259142 -0.0237586 -0.0227798 -0.0259142 -0.0248574 -0.0266494 -0.0259142 -0.0285105 -0.0277383 -0.0259142 -0.0248574 -0.0277383 -0.0266232 -0.0290154 -0.0289361 -0.0308705 -0.0308016 -0.0289361 -0.0285105 -0.0308016 -0.0303671 -0.0308705 -0.0308016 -0.0329167 -0.0328645 -0.0308016 -0.0303671 -0.0328645 -0.032426 -0.0285105 -0.0277383 -0.0303671 -0.0295656 -0.0277383 -0.0266232 -0.0295656 -0.0283993 -0.0303671 -0.0295656 -0.032426 -0.0315984 -0.0295656 -0.0283993 -0.0315984 -0.030382 -0.0227798 -0.0215126 -0.0248574 -0.0234872 -0.0215126 -0.019969 -0.0234872 -0.0218162 -0.0248574 -0.0234872 -0.0266232 -0.0251726 -0.0234872 -0.0218162 -0.0251726 -0.0233987 -0.019969 -0.0181659 -0.0218162 -0.0198619 -0.0181659 -0.016126 -0.0198619 -0.0176485 -0.0218162 -0.0198619 -0.0233987 -0.0213194 -0.0198619 -0.0176485 -0.0213194 -0.0189591 -0.0266232 -0.0251726 -0.0283993 -0.0268747 -0.0251726 -0.0233987 -0.0268747 -0.0250029 -0.0283993 -0.0268747 -0.030382 -0.0287812 -0.0268747 -0.0250029 -0.0287812 -0.0268056 -0.0233987 -0.0213194 -0.0250029 -0.0228011 -0.0213194 -0.0189591 -0.0228011 -0.0202939 -0.0250029 -0.0228011 -0.0268056 -0.024471 -0.0228011 -0.0202939 -0.024471 -0.0218018 -7.33549e-05 -5.96352e-05 -0.00642346 -0.00548242 -5.96352e-05 -4.44564e-05 -0.00548242 -0.00447033 -0.00642346 -0.00548242 -0.0109744 -0.00940336 -0.00548242 -0.00447033 -0.00940336 -0.00771845 -4.44564e-05 -2.75785e-05 -0.00447033 -0.00341926 -2.75785e-05 -1.17308e-05 -0.00341926 -0.00236186 -0.00447033 -0.00341926 -0.00771845 -0.00597123 -0.00341926 -0.00236186 -0.00597123 -0.00421977 -0.0109744 -0.00940336 -0.0140488 -0.0120708 -0.00940336 -0.00771845 -0.0120708 -0.00995115 -0.0140488 -0.0120708 -0.016126 -0.0138806 -0.0120708 -0.00995115 -0.0138806 -0.0114732 -0.00771845 -0.00597123 -0.00995115 -0.00775201 -0.00597123 -0.00421977 -0.00775201 -0.005545 -0.00995115 -0.00775201 -0.0114732 -0.00897122 -0.00775201 -0.005545 -0.00897122 -0.00645356 -1.17308e-05 4.35674e-06 -0.00236186 -0.00145116 4.35674e-06 6.31322e-05 -0.00145116 -0.000332895 -0.00236186 -0.00145116 -0.00421977 -0.00266578 -0.00145116 -0.000332895 -0.00266578 -0.000946029 6.31322e-05 -2.52109e-05 -0.000332895 -0.00149269 -2.52109e-05 0.01163 -0.00149269 0.0103349 -0.000332895 -0.00149269 -0.000946029 -0.00175396 -0.00149269 0.0103349 -0.00175396 0.0108276 -0.00421977 -0.00266578 -0.005545 -0.00354961 -0.00266578 -0.000946029 -0.00354961 -0.00141937 -0.005545 -0.00354961 -0.00645356 -0.00415043 -0.00354961 -0.00141937 -0.00415043 -0.00173482 -0.000946029 -0.00175396 -0.00141937 -0.00192748 -0.00175396 0.0108276 -0.00192748 0.0107141 -0.00141937 -0.00192748 -0.00173482 -0.002023 -0.00192748 0.0107141 -0.002023 0.0107007 -0.016126 -0.0138806 -0.0176485 -0.0152089 -0.0138806 -0.0114732 -0.0152089 -0.0125894 -0.0176485 -0.0152089 -0.0189591 -0.0163522 -0.0152089 -0.0125894 -0.0163522 -0.013547 -0.0114732 -0.00897122 -0.0125894 -0.00986122 -0.00897122 -0.00645356 -0.00986122 -0.00710889 -0.0125894 -0.00986122 -0.013547 -0.010619 -0.00986122 -0.00710889 -0.010619 -0.00765922 -0.0189591 -0.0163522 -0.0202939 -0.0175169 -0.0163522 -0.013547 -0.0175169 -0.0145209 -0.0202939 -0.0175169 -0.0218018 -0.0188347 -0.0175169 -0.0145209 -0.0188347 -0.0156238 -0.013547 -0.010619 -0.0145209 -0.0113865 -0.010619 -0.00765922 -0.0113865 -0.00821312 -0.0145209 -0.0113865 -0.0156238 -0.0122558 -0.0113865 -0.00821312 -0.0122558 -0.00884073 -0.00645356 -0.00415043 -0.00710889 -0.00457399 -0.00415043 -0.00173482 -0.00457399 -0.0019443 -0.00710889 -0.00457399 -0.00765922 -0.0049231 -0.00457399 -0.0019443 -0.0049231 -0.00210935 -0.00173482 -0.002023 -0.0019443 -0.00209314 -0.002023 0.0107007 -0.00209314 0.0107878 -0.0019443 -0.00209314 -0.00210935 -0.00216337 -0.00209314 0.0107878 -0.00216337 0.0109628 -0.00765922 -0.0049231 -0.00821312 -0.00527269 -0.0049231 -0.00210935 -0.00527269 -0.00227131 -0.00821312 -0.00527269 -0.00884073 -0.00567008 -0.00527269 -0.00227131 -0.00567008 -0.00245511 -0.00210935 -0.00216337 -0.00227131 -0.00224582 -0.00216337 0.0109628 -0.00224582 0.0112287 -0.00227131 -0.00224582 -0.00245511 -0.00234831 -0.00224582 0.0112287 -0.00234831 0.0115866 -0.0329167 -0.0328645 -0.0352707 -0.0352419 -0.0328645 -0.032426 -0.0352419 -0.0348044 -0.0352707 -0.0352419 -0.0379976 -0.0380002 -0.0352419 -0.0348044 -0.0380002 -0.0375696 -0.032426 -0.0315984 -0.0348044 -0.033953 -0.0315984 -0.030382 -0.033953 -0.0326853 -0.0348044 -0.033953 -0.0375696 -0.0366978 -0.033953 -0.0326853 -0.0366978 -0.0353787 -0.0379976 -0.0380002 -0.0411371 -0.041181 -0.0380002 -0.0375696 -0.041181 -0.040766 -0.0411371 -0.041181 -0.0447185 -0.0448161 -0.041181 -0.040766 -0.0448161 -0.0444287 -0.0375696 -0.0366978 -0.040766 -0.0398801 -0.0366978 -0.0353787 -0.0398801 -0.0385126 -0.040766 -0.0398801 -0.0444287 -0.0435398 -0.0398801 -0.0385126 -0.0435398 -0.0421324 -0.030382 -0.0287812 -0.0326853 -0.031003 -0.0287812 -0.0268056 -0.031003 -0.0289131 -0.0326853 -0.031003 -0.0353787 -0.0336101 -0.031003 -0.0289131 -0.0336101 -0.0313951 -0.0268056 -0.024471 -0.0289131 -0.0264294 -0.024471 -0.0218018 -0.0264294 -0.0235755 -0.0289131 -0.0264294 -0.0313951 -0.0287443 -0.0264294 -0.0235755 -0.0287443 -0.0256795 -0.0353787 -0.0336101 -0.0385126 -0.036656 -0.0336101 -0.0313951 -0.036656 -0.0343075 -0.0385126 -0.036656 -0.0421324 -0.0401913 -0.036656 -0.0343075 -0.0401913 -0.0377058 -0.0313951 -0.0287443 -0.0343075 -0.0314728 -0.0287443 -0.0256795 -0.0314728 -0.0281703 -0.0343075 -0.0314728 -0.0377058 -0.034674 -0.0314728 -0.0281703 -0.034674 -0.0311085 -0.0447185 -0.0448161 -0.0487664 -0.0489329 -0.0448161 -0.0444287 -0.0489329 -0.04859 -0.0487664 -0.0489329 -0.0533021 -0.0535562 -0.0489329 -0.04859 -0.0535562 -0.0532803 -0.0444287 -0.0435398 -0.04859 -0.0477153 -0.0435398 -0.0421324 -0.0477153 -0.0462837 -0.04859 -0.0477153 -0.0532803 -0.0524451 -0.0477153 -0.0462837 -0.0524451 -0.0510154 -0.0533021 -0.0535562 -0.0583421 -0.058706 -0.0535562 -0.0532803 -0.058706 -0.0585263 -0.0583421 -0.058706 -0.0638958 -0.0643949 -0.058706 -0.0585263 -0.0643949 -0.0643485 -0.0532803 -0.0524451 -0.0585263 -0.0577662 -0.0524451 -0.0510154 -0.0577662 -0.0563778 -0.0585263 -0.0577662 -0.0643485 -0.0637114 -0.0577662 -0.0563778 -0.0637114 -0.0624211 -0.0421324 -0.0401913 -0.0462837 -0.04427 -0.0401913 -0.0377058 -0.04427 -0.0416521 -0.0462837 -0.04427 -0.0510154 -0.0489524 -0.04427 -0.0416521 -0.0489524 -0.0462184 -0.0377058 -0.034674 -0.0416521 -0.0384165 -0.034674 -0.0311085 -0.0384165 -0.0345665 -0.0416521 -0.0384165 -0.0462184 -0.0427831 -0.0384165 -0.0345665 -0.0427831 -0.0386346 -0.0510154 -0.0489524 -0.0563778 -0.0543051 -0.0489524 -0.0462184 -0.0543051 -0.0514888 -0.0563778 -0.0543051 -0.0624211 -0.0604001 -0.0543051 -0.0514888 -0.0604001 -0.0575604 -0.0462184 