# vtk DataFile Version 3.0
#This file was generated by the deal.II library on 2026/1/5 at 14:19:34
ASCII
DATASET UNSTRUCTURED_GRID

POINTS 4096 double
0 0 0
0.03125 0 0
0 0.03125 0
0.03125 0.03125 0
0.03125 0 0
0.0625 0 0
0.03125 0.03125 0
0.0625 0.03125 0
0 0.03125 0
0.03125 0.03125 0
0 0.0625 0
0.03125 0.0625 0
0.03125 0.03125 0
0.0625 0.03125 0
0.03125 0.0625 0
0.0625 0.0625 0
0.0625 0 0
0.09375 0 0
0.0625 0.03125 0
0.09375 0.03125 0
0.09375 0 0
0.125 0 0
0.09375 0.03125 0
0.125 0.03125 0
0.0625 0.03125 0
0.09375 0.03125 0
0.0625 0.0625 0
0.09375 0.0625 0
0.09375 0.03125 0
0.125 0.03125 0
0.09375 0.0625 0
0.125 0.0625 0
0 0.0625 0
0.03125 0.0625 0
0 0.09375 0
0.03125 0.09375 0
0.03125 0.0625 0
0.0625 0.0625 0
0.03125 0.09375 0
0.0625 0.09375 0
0 0.09375 0
0.03125 0.09375 0
0 0.125 0
0.03125 0.125 0
0.03125 0.09375 0
0.0625 0.09375 0
0.03125 0.125 0
0.0625 0.125 0
0.0625 0.0625 0
0.09375 0.0625 0
0.0625 0.09375 0
0.09375 0.09375 0
0.09375 0.0625 0
0.125 0.0625 0
0.09375 0.09375 0
0.125 0.09375 0
0.0625 0.09375 0
0.09375 0.09375 0
0.0625 0.125 0
0.09375 0.125 0
0.09375 0.09375 0
0.125 0.09375 0
0.09375 0.125 0
0.125 0.125 0
0.125 0 0
0.15625 0 0
0.125 0.03125 0
0.15625 0.03125 0
0.15625 0 0
0.1875 0 0
0.15625 0.03125 0
0.1875 0.03125 0
0.125 0.03125 0
0.15625 0.03125 0
0.125 0.0625 0
0.15625 0.0625 0
0.15625 0.03125 0
0.1875 0.03125 0
0.15625 0.0625 0
0.1875 0.0625 0
0.1875 0 0
0.21875 0 0
0.1875 0.03125 0
0.21875 0.03125 0
0.21875 0 0
0.25 0 0
0.21875 0.03125 0
0.25 0.03125 0
0.1875 0.03125 0
0.21875 0.03125 0
0.1875 0.0625 0
0.21875 0.0625 0
0.21875 0.03125 0
0.25 0.03125 0
0.21875 0.0625 0
0.25 0.0625 0
0.125 0.0625 0
0.15625 0.0625 0
0.125 0.09375 0
0.15625 0.09375 0
0.15625 0.0625 0
0.1875 0.0625 0
0.15625 0.09375 0
0.1875 0.09375 0
0.125 0.09375 0
0.15625 0.09375 0
0.125 0.125 0
0.15625 0.125 0
0.15625 0.09375 0
0.1875 0.09375 0
0.15625 0.125 0
0.1875 0.125 0
0.1875 0.0625 0
0.21875 0.0625 0
0.1875 0.09375 0
0.21875 0.09375 0
0.21875 0.0625 0
0.25 0.0625 0
0.21875 0.09375 0
0.25 0.09375 0
0.1875 0.09375 0
0.21875 0.09375 0
0.1875 0.125 0
0.21875 0.125 0
0.21875 0.09375 0
0.25 0.09375 0
0.21875 0.125 0
0.25 0.125 0
0 0.125 0
0.03125 0.125 0
0 0.15625 0
0.03125 0.15625 0
0.03125 0.125 0
0.0625 0.125 0
0.03125 0.15625 0
0.0625 0.15625 0
0 0.15625 0
0.03125 0.15625 0
0 0.1875 0
0.03125 0.1875 0
0.03125 0.15625 0
0.0625 0.15625 0
0.03125 0.1875 0
0.0625 0.1875 0
0.0625 0.125 0
0.09375 0.125 0
0.0625 0.15625 0
0.09375 0.15625 0
0.09375 0.125 0
0.125 0.125 0
0.09375 0.15625 0
0.125 0.15625 0
0.0625 0.15625 0
0.09375 0.15625 0
0.0625 0.1875 0
0.09375 0.1875 0
0.09375 0.15625 0
0.125 0.15625 0
0.09375 0.1875 0
0.125 0.1875 0
0 0.1875 0
0.03125 0.1875 0
0 0.21875 0
0.03125 0.21875 0
0.03125 0.1875 0
0.0625 0.1875 0
0.03125 0.21875 0
0.0625 0.21875 0
0 0.21875 0
0.03125 0.21875 0
0 0.25 0
0.03125 0.25 0
0.03125 0.21875 0
0.0625 0.21875 0
0.03125 0.25 0
0.0625 0.25 0
0.0625 0.1875 0
0.09375 0.1875 0
0.0625 0.21875 0
0.09375 0.21875 0
0.09375 0.1875 0
0.125 0.1875 0
0.09375 0.21875 0
0.125 0.21875 0
0.0625 0.21875 0
0.09375 0.21875 0
0.0625 0.25 0
0.09375 0.25 0
0.09375 0.21875 0
0.125 0.21875 0
0.09375 0.25 0
0.125 0.25 0
0.125 0.125 0
0.15625 0.125 0
0.125 0.15625 0
0.15625 0.15625 0
0.15625 0.125 0
0.1875 0.125 0
0.15625 0.15625 0
0.1875 0.15625 0
0.125 0.15625 0
0.15625 0.15625 0
0.125 0.1875 0
0.15625 0.1875 0
0.15625 0.15625 0
0.1875 0.15625 0
0.15625 0.1875 0
0.1875 0.1875 0
0.1875 0.125 0
0.21875 0.125 0
0.1875 0.15625 0
0.21875 0.15625 0
0.21875 0.125 0
0.25 0.125 0
0.21875 0.15625 0
0.25 0.15625 0
0.1875 0.15625 0
0.21875 0.15625 0
0.1875 0.1875 0
0.21875 0.1875 0
0.21875 0.15625 0
0.25 0.15625 0
0.21875 0.1875 0
0.25 0.1875 0
0.125 0.1875 0
0.15625 0.1875 0
0.125 0.21875 0
0.15625 0.21875 0
0.15625 0.1875 0
0.1875 0.1875 0
0.15625 0.21875 0
0.1875 0.21875 0
0.125 0.21875 0
0.15625 0.21875 0
0.125 0.25 0
0.15625 0.25 0
0.15625 0.21875 0
0.1875 0.21875 0
0.15625 0.25 0
0.1875 0.25 0
0.1875 0.1875 0
0.21875 0.1875 0
0.1875 0.21875 0
0.21875 0.21875 0
0.21875 0.1875 0
0.25 0.1875 0
0.21875 0.21875 0
0.25 0.21875 0
0.1875 0.21875 0
0.21875 0.21875 0
0.1875 0.25 0
0.21875 0.25 0
0.21875 0.21875 0
0.25 0.21875 0
0.21875 0.25 0
0.25 0.25 0
0.25 0 0
0.28125 0 0
0.25 0.03125 0
0.28125 0.03125 0
0.28125 0 0
0.3125 0 0
0.28125 0.03125 0
0.3125 0.03125 0
0.25 0.03125 0
0.28125 0.03125 0
0.25 0.0625 0
0.28125 0.0625 0
0.28125 0.03125 0
0.3125 0.03125 0
0.28125 0.0625 0
0.3125 0.0625 0
0.3125 0 0
0.34375 0 0
0.3125 0.03125 0
0.34375 0.03125 0
0.34375 0 0
0.375 0 0
0.34375 0.03125 0
0.375 0.03125 0
0.3125 0.03125 0
0.34375 0.03125 0
0.3125 0.0625 0
0.34375 0.0625 0
0.34375 0.03125 0
0.375 0.03125 0
0.34375 0.0625 0
0.375 0.0625 0
0.25 0.0625 0
0.28125 0.0625 0
0.25 0.09375 0
0.28125 0.09375 0
0.28125 0.0625 0
0.3125 0.0625 0
0.28125 0.09375 0
0.3125 0.09375 0
0.25 0.09375 0
0.28125 0.09375 0
0.25 0.125 0
0.28125 0.125 0
0.28125 0.09375 0
0.3125 0.09375 0
0.28125 0.125 0
0.3125 0.125 0
0.3125 0.0625 0
0.34375 0.0625 0
0.3125 0.09375 0
0.34375 0.09375 0
0.34375 0.0625 0
0.375 0.0625 0
0.34375 0.09375 0
0.375 0.09375 0
0.3125 0.09375 0
0.34375 0.09375 0
0.3125 0.125 0
0.34375 0.125 0
0.34375 0.09375 0
0.375 0.09375 0
0.34375 0.125 0
0.375 0.125 0
0.375 0 0
0.40625 0 0
0.375 0.03125 0
0.40625 0.03125 0
0.40625 0 0
0.4375 0 0
0.40625 0.03125 0
0.4375 0.03125 0
0.375 0.03125 0
0.40625 0.03125 0
0.375 0.0625 0
0.40625 0.0625 0
0.40625 0.03125 0
0.4375 0.03125 0
0.40625 0.0625 0
0.4375 0.0625 0
0.4375 0 0
0.46875 0 0
0.4375 0.03125 0
0.46875 0.03125 0
0.46875 0 0
0.5 0 0
0.46875 0.03125 0
0.5 0.03125 0
0.4375 0.03125 0
0.46875 0.03125 0
0.4375 0.0625 0
0.46875 0.0625 0
0.46875 0.03125 0
0.5 0.03125 0
0.46875 0.0625 0
0.5 0.0625 0
0.375 0.0625 0
0.40625 0.0625 0
0.375 0.09375 0
0.40625 0.09375 0
0.40625 0.0625 0
0.4375 0.0625 0
0.40625 0.09375 0
0.4375 0.09375 0
0.375 0.09375 0
0.40625 0.09375 0
0.375 0.125 0
0.40625 0.125 0
0.40625 0.09375 0
0.4375 0.09375 0
0.40625 0.125 0
0.4375 0.125 0
0.4375 0.0625 0
0.46875 0.0625 0
0.4375 0.09375 0
0.46875 0.09375 0
0.46875 0.0625 0
0.5 0.0625 0
0.46875 0.09375 0
0.5 0.09375 0
0.4375 0.09375 0
0.46875 0.09375 0
0.4375 0.125 0
0.46875 0.125 0
0.46875 0.09375 0
0.5 0.09375 0
0.46875 0.125 0
0.5 0.125 0
0.25 0.125 0
0.28125 0.125 0
0.25 0.15625 0
0.28125 0.15625 0
0.28125 0.125 0
0.3125 0.125 0
0.28125 0.15625 0
0.3125 0.15625 0
0.25 0.15625 0
0.28125 0.15625 0
0.25 0.1875 0
0.28125 0.1875 0
0.28125 0.15625 0
0.3125 0.15625 0
0.28125 0.1875 0
0.3125 0.1875 0
0.3125 0.125 0
0.34375 0.125 0
0.3125 0.15625 0
0.34375 0.15625 0
0.34375 0.125 0
0.375 0.125 0
0.34375 0.15625 0
0.375 0.15625 0
0.3125 0.15625 0
0.34375 0.15625 0
0.3125 0.1875 0
0.34375 0.1875 0
0.34375 0.15625 0
0.375 0.15625 0
0.34375 0.1875 0
0.375 0.1875 0
0.25 0.1875 0
0.28125 0.1875 0
0.25 0.21875 0
0.28125 0.21875 0
0.28125 0.1875 0
0.3125 0.1875 0
0.28125 0.21875 0
0.3125 0.21875 0
0.25 0.21875 0
0.28125 0.21875 0
0.25 0.25 0
0.28125 0.25 0
0.28125 0.21875 0
0.3125 0.21875 0
0.28125 0.25 0
0.3125 0.25 0
0.3125 0.1875 0
0.34375 0.1875 0
0.3125 0.21875 0
0.34375 0.21875 0
0.34375 0.1875 0
0.375 0.1875 0
0.34375 0.21875 0
0.375 0.21875 0
0.3125 0.21875 0
0.34375 0.21875 0
0.3125 0.25 0
0.34375 0.25 0
0.34375 0.21875 0
0.375 0.21875 0
0.34375 0.25 0
0.375 0.25 0
0.375 0.125 0
0.40625 0.125 0
0.375 0.15625 0
0.40625 0.15625 0
0.40625 0.125 0
0.4375 0.125 0
0.40625 0.15625 0
0.4375 0.15625 0
0.375 0.15625 0
0.40625 0.15625 0
0.375 0.1875 0
0.40625 0.1875 0
0.40625 0.15625 0
0.4375 0.15625 0
0.40625 0.1875 0
0.4375 0.1875 0
0.4375 0.125 0
0.46875 0.125 0
0.4375 0.15625 0
0.46875 0.15625 0
0.46875 0.125 0
0.5 0.125 0
0.46875 0.15625 0
0.5 0.15625 0
0.4375 0.15625 0
0.46875 0.15625 0
0.4375 0.1875 0
0.46875 0.1875 0
0.46875 0.15625 0
0.5 0.15625 0
0.46875 0.1875 0
0.5 0.1875 0
0.375 0.1875 0
0.40625 0.1875 0
0.375 0.21875 0
0.40625 0.21875 0
0.40625 0.1875 0
0.4375 0.1875 0
0.40625 0.21875 0
0.4375 0.21875 0
0.375 0.21875 0
0.40625 0.21875 0
0.375 0.25 0
0.40625 0.25 0
0.40625 0.21875 0
0.4375 0.21875 0
0.40625 0.25 0
0.4375 0.25 0
0.4375 0.1875 0
0.46875 0.1875 0
0.4375 0.21875 0
0.46875 0.21875 0
0.46875 0.1875 0
0.5 0.1875 0
0.46875 0.21875 0
0.5 0.21875 0
0.4375 0.21875 0
0.46875 0.21875 0
0.4375 0.25 0
0.46875 0.25 0
0.46875 0.21875 0
0.5 0.21875 0
0.46875 0.25 0
0.5 0.25 0
0 0.25 0
0.03125 0.25 0
0 0.28125 0
0.03125 0.28125 0
0.03125 0.25 0
0.0625 0.25 0
0.03125 0.28125 0
0.0625 0.28125 0
0 0.28125 0
0.03125 0.28125 0
0 0.3125 0
0.03125 0.3125 0
0.03125 0.28125 0
0.0625 0.28125 0
0.03125 0.3125 0
0.0625 0.3125 0
0.0625 0.25 0
0.09375 0.25 0
0.0625 0.28125 0
0.09375 0.28125 0
0.09375 0.25 0
0.125 0.25 0
0.09375 0.28125 0
0.125 0.28125 0
0.0625 0.28125 0
0.09375 0.28125 0
0.0625 0.3125 0
0.09375 0.3125 0
0.09375 0.28125 0
0.125 0.28125 0
0.09375 0.3125 0
0.125 0.3125 0
0 0.3125 0
0.03125 0.3125 0
0 0.34375 0
0.03125 0.34375 0
0.03125 0.3125 0
0.0625 0.3125 0
0.03125 0.34375 0
0.0625 0.34375 0
0 0.34375 0
0.03125 0.34375 0
0 0.375 0
0.03125 0.375 0
0.03125 0.34375 0
0.0625 0.34375 0
0.03125 0.375 0
0.0625 0.375 0
0.0625 0.3125 0
0.09375 0.3125 0
0.0625 0.34375 0
0.09375 0.34375 0
0.09375 0.3125 0
0.125 0.3125 0
0.09375 0.34375 0
0.125 0.34375 0
0.0625 0.34375 0
0.09375 0.34375 0
0.0625 0.375 0
0.09375 0.375 0
0.09375 0.34375 0
0.125 0.34375 0
0.09375 0.375 0
0.125 0.375 0
0.125 0.25 0
0.15625 0.25 0
0.125 0.28125 0
0.15625 0.28125 0
0.15625 0.25 0
0.1875 0.25 0
0.15625 0.28125 0
0.1875 0.28125 0
0.125 0.28125 0
0.15625 0.28125 0
0.125 0.3125 0
0.15625 0.3125 0
0.15625 0.28125 0
0.1875 0.28125 0
0.15625 0.3125 0
0.1875 0.3125 0
0.1875 0.25 0
0.21875 0.25 0
0.1875 0.28125 0
0.21875 0.28125 0
0.21875 0.25 0
0.25 0.25 0
0.21875 0.28125 0
0.25 0.28125 0
0.1875 0.28125 0
0.21875 0.28125 0
0.1875 0.3125 0
0.21875 0.3125 0
0.21875 0.28125 0
0.25 0.28125 0
0.21875 0.3125 0
0.25 0.3125 0
0.125 0.3125 0
0.15625 0.3125 0
0.125 0.34375 0
0.15625 0.34375 0
0.15625 0.3125 0
0.1875 0.3125 0
0.15625 0.34375 0
0.1875 0.34375 0
0.125 0.34375 0
[...]
POINT_DATA 4096
SCALARS u_x double 1
LOOKUP_TABLE default
1.91801e-06 1.44057e-05 -5.0718e-05 -6.7553e-05 1.44057e-05 2.13337e-05 -6.7553e-05 -0.000427648 -5.0718e-05 -6.7553e-05 -0.000175825 -0.000240373 -6.7553e-05 -0.000427648 -0.000240373 -0.00102513 2.13337e-05 1.69424e-05 -0.000427648 -0.00107411 1.69424e-05 6.55804e-06 -0.00107411 -0.00194951 -0.000427648 -0.00107411 -0.00102513 -0.00223626 -0.00107411 -0.00194951 -0.00223626 -0.00379698 -0.000175825 -0.000240373 -0.000301238 -0.000394966 -0.000240373 -0.00102513 -0.000394966 -0.00156851 -0.000301238 -0.000394966 -0.000380573 -0.000514905 -0.000394966 -0.00156851 -0.000514905 -0.00200096 -0.00102513 -0.00223626 -0.00156851 -0.00326375 -0.00223626 -0.00379698 -0.00326375 -0.00537726 -0.00156851 -0.00326375 -0.00200096 -0.00409503 -0.00326375 -0.00537726 -0.00409503 -0.00665639 6.55804e-06 -6.10926e-06 -0.00194951 -0.00296575 -6.10926e-06 -1.91596e-05 -0.00296575 -0.0040476 -0.00194951 -0.00296575 -0.00379698 -0.00557655 -0.00296575 -0.0040476 -0.00557655 -0.00746151 -1.91596e-05 -3.17545e-05 -0.0040476 -0.00513714 -3.17545e-05 -4.35495e-05 -0.00513714 -0.00619277 -0.0040476 -0.00513714 -0.00746151 -0.00935876 -0.00513714 -0.00619277 -0.00935876 -0.0111982 -0.00379698 -0.00557655 -0.00537726 -0.00774642 -0.00557655 -0.00746151 -0.00774642 -0.0102366 -0.00537726 -0.00774642 -0.00665639 -0.00949207 -0.00774642 -0.0102366 -0.00949207 -0.0124508 -0.00746151 -0.00935876 -0.0102366 -0.0127347 -0.00935876 -0.0111982 -0.0127347 -0.0151535 -0.0102366 -0.0127347 -0.0124508 -0.0154069 -0.0127347 -0.0151535 -0.0154069 -0.0182626 -0.000380573 -0.000514905 -0.000392383 -0.000609642 -0.000514905 -0.00200096 -0.000609642 -0.00233262 -0.000392383 -0.000609642 -0.000327084 -0.000692532 -0.000609642 -0.00233262 -0.000692532 -0.00259448 -0.00200096 -0.00409503 -0.00233262 -0.00475139 -0.00409503 -0.00665639 -0.00475139 -0.00767942 -0.00233262 -0.00475139 -0.00259448 -0.00528612 -0.00475139 -0.00767942 -0.00528612 -0.0085256 -0.000327084 -0.000692532 -0.00018003 -0.000775215 -0.000692532 -0.00259448 -0.000775215 -0.00281889 -0.00018003 -0.000775215 5.18254e-05 -0.000866794 -0.000775215 -0.00281889 -0.000866794 -0.00303324 -0.00259448 -0.00528612 -0.00281889 -0.0057571 -0.00528612 -0.0085256 -0.0057571 -0.00927944 -0.00281889 -0.0057571 -0.00303324 -0.00621514 -0.0057571 -0.00927944 -0.00621514 -0.010016 -0.00665639 -0.00949207 -0.00767942 -0.0108961 -0.00949207 -0.0124508 -0.0108961 -0.0142334 -0.00767942 -0.0108961 -0.0085256 -0.0120694 -0.0108961 -0.0142334 -0.0120694 -0.0157319 -0.0124508 -0.0154069 -0.0142334 -0.0175552 -0.0154069 -0.0182626 -0.0175552 -0.0207567 -0.0142334 -0.0175552 -0.0157319 -0.0193669 -0.0175552 -0.0207567 -0.0193669 -0.0228633 -0.0085256 -0.0120694 -0.00927944 -0.0131248 -0.0120694 -0.0157319 -0.0131248 -0.0170892 -0.00927944 -0.0131248 -0.010016 -0.0141619 -0.0131248 -0.0170892 -0.0141619 -0.018429 -0.0157319 -0.0193669 -0.0170892 -0.0210159 -0.0193669 -0.0228633 -0.0210159 -0.0247873 -0.0170892 -0.0210159 -0.018429 -0.0226496 -0.0210159 -0.0247873 -0.0226496 -0.0266992 -4.35495e-05 -5.44295e-05 -0.00619277 -0.00718527 -5.44295e-05 -6.43552e-05 -0.00718527 -0.00809378 -0.00619277 -0.00718527 -0.0111982 -0.0129284 -0.00718527 -0.00809378 -0.0129284 -0.0145117 -6.43552e-05 -7.3291e-05 -0.00809378 -0.00890265 -7.3291e-05 -8.11768e-05 -0.00890265 -0.0095993 -0.00809378 -0.00890265 -0.0145117 -0.0159195 -0.00890265 -0.0095993 -0.0159195 -0.0171292 -0.0111982 -0.0129284 -0.0151535 -0.0174271 -0.0129284 -0.0145117 -0.0174271 -0.019506 -0.0151535 -0.0174271 -0.0182626 -0.0209432 -0.0174271 -0.019506 -0.0209432 -0.023392 -0.0145117 -0.0159195 -0.019506 -0.0213524 -0.0159195 -0.0171292 -0.0213524 -0.0229359 -0.019506 -0.0213524 -0.023392 -0.0255647 -0.0213524 -0.0229359 -0.0255647 -0.0274262 -8.11768e-05 -8.7924e-05 -0.0095993 -0.010173 -8.7924e-05 -9.34206e-05 -0.010173 -0.0106143 -0.0095993 -0.010173 -0.0171292 -0.0181216 -0.010173 -0.0106143 -0.0181216 -0.0188805 -9.34206e-05 -9.75371e-05 -0.0106143 -0.0109147 -9.75371e-05 -0.000100137 -0.0109147 -0.0110671 -0.0106143 -0.0109147 -0.0188805 -0.0193916 -0.0109147 -0.0110671 -0.0193916 -0.0196432 -0.0171292 -0.0181216 -0.0229359 -0.0242315 -0.0181216 -0.0188805 -0.0242315 -0.0252179 -0.0229359 -0.0242315 -0.0274262 -0.0289471 -0.0242315 -0.0252179 -0.0289471 -0.0301028 -0.0188805 -0.0193916 -0.0252179 -0.0258773 -0.0193916 -0.0196432 -0.0258773 -0.0261947 -0.0252179 -0.0258773 -0.0301028 -0.0308726 -0.0258773 -0.0261947 -0.0308726 -0.0312394 -0.0182626 -0.0209432 -0.0207567 -0.0237576 -0.0209432 -0.023392 -0.0237576 -0.0264965 -0.0207567 -0.0237576 -0.0228633 -0.0261367 -0.0237576 -0.0264965 -0.0261367 -0.0291229 -0.023392 -0.0255647 -0.0264965 -0.0289256 -0.0255647 -0.0274262 -0.0289256 -0.0310063 -0.0264965 -0.0289256 -0.0291229 -0.0317716 -0.0289256 -0.0310063 -0.0317716 -0.0340424 -0.0228633 -0.0261367 -0.0247873 -0.0283154 -0.0261367 -0.0291229 -0.0283154 -0.031534 -0.0247873 -0.0283154 -0.0266992 -0.0304863 -0.0283154 -0.031534 -0.0304863 -0.0339426 -0.0291229 -0.0317716 -0.031534 -0.0343912 -0.0317716 -0.0340424 -0.0343912 -0.0368452 -0.031534 -0.0343912 -0.0339426 -0.0370153 -0.0343912 -0.0368452 -0.0370153 -0.0396617 -0.0274262 -0.0289471 -0.0310063 -0.0327066 -0.0289471 -0.0301028 -0.0327066 -0.0339993 -0.0310063 -0.0327066 -0.0340424 -0.0359012 -0.0327066 -0.0339993 -0.0359012 -0.0373191 -0.0301028 -0.0308726 -0.0339993 -0.0348617 -0.0308726 -0.0312394 -0.0348617 -0.0352747 -0.0339993 -0.0348617 -0.0373191 -0.0382713 -0.0348617 -0.0352747 -0.0382713 -0.038737 -0.0340424 -0.0359012 -0.0368452 -0.0388607 -0.0359012 -0.0373191 -0.0388607 -0.0404072 -0.0368452 -0.0388607 -0.0396617 -0.0418455 -0.0388607 -0.0404072 -0.0418455 -0.043535 -0.0373191 -0.0382713 -0.0404072 -0.0414579 -0.0382713 -0.038737 -0.0414579 -0.0419899 -0.0404072 -0.0414579 -0.043535 -0.0447014 -0.0414579 -0.0419899 -0.0447014 -0.0453188 5.18254e-05 -0.000866794 0.000371721 -0.00097409 -0.000866794 -0.00303324 -0.00097409 -0.0032586 0.000371721 -0.00097409 0.000784054 -0.00110225 -0.00097409 -0.0032586 -0.00110225 -0.00351052 -0.00303324 -0.00621514 -0.0032586 -0.00670052 -0.00621514 -0.010016 -0.00670052 -0.0107958 -0.0032586 -0.00670052 -0.00351052 -0.00724383 -0.00670052 -0.0107958 -0.00724383 -0.0116653 0.000784054 -0.00110225 0.0012948 -0.00125545 -0.00110225 -0.00351052 -0.00125545 -0.00380068 0.0012948 -0.00125545 0.00191174 -0.00143751 -0.00125545 -0.00380068 -0.00143751 -0.00413883 -0.00351052 -0.00724383 -0.00380068 -0.00786857 -0.00724383 -0.0116653 -0.00786857 -0.0126604 -0.00380068 -0.00786857 -0.00413883 -0.00859452 -0.00786857 -0.0126604 -0.00859452 -0.0138111 -0.010016 -0.0141619 -0.0107958 -0.0152607 -0.0141619 -0.018429 -0.0152607 -0.0198502 -0.0107958 -0.0152607 -0.0116653 -0.0164832 -0.0152607 -0.0198502 -0.0164832 -0.0214289 -0.018429 -0.0226496 -0.0198502 -0.0243847 -0.0226496 -0.0266992 -0.0243847 -0.0287322 -0.0198502 -0.0243847 -0.0214289 -0.0263099 -0.0243847 -0.0287322 -0.0263099 -0.0309865 -0.0116653 -0.0164832 -0.0126604 -0.0178772 -0.0164832 -0.0214289 -0.0178772 -0.0232235 -0.0126604 -0.0178772 -0.0138111 -0.0194825 -0.0178772 -0.0232235 -0.0194825 -0.0252816 -0.0214289 -0.0263099 -0.0232235 -0.0284926 -0.0263099 -0.0309865 -0.0284926 -0.0335362 -0.0232235 -0.0284926 -0.0252816 -0.0309862 -0.0284926 -0.0335362 -0.0309862 -0.0364393 0.00191174 -0.00143751 0.00264458 -0.00165251 -0.00143751 -0.00413883 -0.00165251 -0.0045345 0.00264458 -0.00165251 0.00350516 -0.00190532 -0.00165251 -0.0045345 -0.00190532 -0.00499866 -0.00413883 -0.00859452 -0.0045345 -0.00944093 -0.00859452 -0.0138111 -0.00944093 -0.0151465 -0.0045345 -0.00944093 -0.00499866 -0.0104296 -0.00944093 -0.0151465 -0.0104296 -0.0166983 0.00350516 -0.00190532 0.00450774 -0.00220214 -0.00190532 -0.00499866 -0.00220214 -0.00554545 0.00450774 -0.00220214 0.00566946 -0.00255119 -0.00220214 -0.00554545 -0.00255119 -0.00619396 -0.00499866 -0.0104296 -0.00554545 -0.0115877 -0.0104296 -0.0166983 -0.0115877 -0.0185054 -0.00554545 -0.0115877 -0.00619396 -0.0129515 -0.0115877 -0.0185054 -0.0129515 -0.0206182 -0.0138111 -0.0194825 -0.0151465 -0.0213362 -0.0194825 -0.0252816 -0.0213362 -0.0276466 -0.0151465 -0.0213362 -0.0166983 -0.0234783 -0.0213362 -0.0276466 -0.0234783 -0.0303637 -0.0252816 -0.0309862 -0.0276466 -0.0338382 -0.0309862 -0.0364393 -0.0338382 -0.0397446 -0.0276466 -0.0338382 -0.0303637 -0.0370959 -0.0338382 -0.0397446 -0.0370959 -0.0434992 -0.0166983 -0.0234783 -0.0185054 -0.0259565 -0.0234783 -0.0303637 -0.0259565 -0.0334854 -0.0185054 -0.0259565 -0.0206182 -0.0288306 -0.0259565 -0.0334854 -0.0288306 -0.0370752 -0.0303637 -0.0370959 -0.0334854 -0.0408123 -0.0370959 -0.0434992 -0.0408123 -0.0477528 -0.0334854 -0.0408123 -0.0370752 -0.0450491 -0.0408123 -0.0477528 -0.0450491 -0.0525611 -0.0266992 -0.0304863 -0.0287322 -0.0327976 -0.0304863 -0.0339426 -0.0327976 -0.0365108 -0.0287322 -0.0327976 -0.0309865 -0.0353593 -0.0327976 -0.0365108 -0.0353593 -0.039357 -0.0339426 -0.0370153 -0.0365108 -0.0398182 -0.0370153 -0.0396617 -0.0398182 -0.0426769 -0.0365108 -0.0398182 -0.039357 -0.0429259 -0.0398182 -0.0426769 -0.0429259 -0.0460234 -0.0309865 -0.0353593 -0.0335362 -0.0382515 -0.0353593 -0.039357 -0.0382515 -0.042566 -0.0335362 -0.0382515 -0.0364393 -0.0415345 -0.0382515 -0.042566 -0.0415345 -0.0461998 -0.039357 -0.0429259 -0.042566 -0.0464271 -0.0429259 -0.0460234 -0.0464271 -0.0497931 -0.042566 -0.0464271 -0.0461998 -0.0503844 -0.0464271 -0.0497931 -0.0503844 -0.0540496 -0.0396617 -0.0418455 -0.0426769 -0.04505 -0.0418455 -0.043535 -0.04505 -0.0469047 -0.0426769 -0.04505 -0.0460234 -0.0486126 -0.04505 -0.0469047 -0.0486126 -0.0506598 -0.043535 -0.0447014 -0.0469047 -0.04821 -0.0447014 -0.0453188 -0.04821 -0.048937 -0.0469047 -0.04821 -0.0506598 -0.0521323 -0.04821 -0.048937 -0.0521323 -0.0529977 -0.0460234 -0.0486126 -0.0497931 -0.0526284 -0.0486126 -0.0506598 -0.0526284 -0.0548992 -0.0497931 -0.0526284 -0.0540496 -0.0571622 -0.0526284 -0.0548992 -0.0571622 -0.0596897 -0.0506598 -0.0521323 -0.0548992 -0.0565714 -0.0521323 -0.0529977 -0.0565714 -0.0576091 -0.0548992 -0.0565714 -0.0596897 -0.0615977 -0.0565714 -0.0576091 -0.0615977 -0.0628471 -0.0364393 -0.0415345 -0.0397446 -0.0452572 -0.0415345 -0.0461998 -0.0452572 -0.0503058 -0.0397446 -0.0452572 -0.0434992 -0.0494641 -0.0452572 -0.0503058 -0.0494641 -0.0549244 -0.0461998 -0.0503844 -0.0503058 -0.0548436 -0.0503844 -0.0540496 -0.0548436 -0.0588369 -0.0503058 -0.0548436 -0.0549244 -0.0598403 -0.0548436 -0.0588369 -0.0598403 -0.0641859 -0.0434992 -0.0494641 -0.0477528 -0.0541991 -0.0494641 -0.0549244 -0.0541991 -0.0600922 -0.0477528 -0.0541991 -0.0525611 -0.0595081 -0.0541991 -0.0600922 -0.0595081 -0.0658429 -0.0549244 -0.0598403 -0.0600922 -0.0654027 -0.0598403 -0.0641859 -0.0654027 -0.0701167 -0.0600922 -0.0654027 -0.0658429 -0.0715516 -0.0654027 -0.0701167 -0.0715516 -0.076637 -0.0540496 -0.0571622 -0.0588369 -0.062257 -0.0571622 -0.0596897 -0.062257 -0.065075 -0.0588369 -0.062257 -0.0641859 -0.0679402 -0.062257 -0.065075 -0.0679402 -0.0710808 -0.0596897 -0.0615977 -0.065075 -0.0672576 -0.0615977 -0.0628471 -0.0672576 -0.068764 -0.065075 -0.0672576 -0.0710808 -0.0735784 -0.0672576 -0.068764 -0.0735784 -0.0753925 -0.0641859 -0.0679402 -0.0701167 -0.0742251 -0.0679402 -0.0710808 -0.0742251 -0.0777157 -0.0701167 -0.0742251 -0.076637 -0.081107 -0.0742251 -0.0777157 -0.081107 -0.0849651 -0.0710808 -0.0735784 -0.0777157 -0.0805671 -0.0735784 -0.0753925 -0.0805671 -0.0827428 -0.0777157 -0.0805671 -0.0849651 -0.0882031 -0.0805671 -0.0827428 -0.0882031 -0.0907936 -0.000100137 -0.000101088 -0.0110671 -0.0110656 -0.000101088 -0.000100271 -0.0110656 -0.0109061 -0.0110671 -0.0110656 -0.0196432 -0.019626 -0.0110656 -0.0109061 -0.019626 -0.0193339 -0.000100271 -9.75853e-05 -0.0109061 -0.0105865 -9.75853e-05 -9.29551e-05 -0.0105865 -0.0101071 -0.0109061 -0.0105865 -0.0193339 -0.0187641 -0.0105865 -0.0101071 -0.0187641 -0.0179185 -0.0196432 -0.019626 -0.0261947 -0.0261588 -0.019626 -0.0193339 -0.0261588 -0.0257624 -0.0261947 -0.0261588 -0.0312394 -0.0311905 -0.0261588 -0.0257624 -0.0311905 -0.0307176 -0.0193339 -0.0187641 -0.0257624 -0.025003 -0.0187641 -0.0179185 -0.025003 -0.0238834 -0.0257624 -0.025003 -0.0307176 -0.029818 -0.025003 -0.0238834 -0.029818 -0.0284953 -9.29551e-05 -8.63344e-05 -0.0101071 -0.00947133 -8.63344e-05 -7.77153e-05 -0.00947133 -0.00868633 -0.0101071 -0.00947133 -0.0179185 -0.0168041 -0.00947133 -0.00868633 -0.0168041 -0.0154343 -7.77153e-05 -6.71403e-05 -0.00868633 -0.0077642 -6.71403e-05 -5.47232e-05 -0.0077642 -0.00672354 -0.00868633 -0.0077642 -0.0154343 -0.0138314 -0.0077642 -0.00672354 -0.0138314 -0.0120286 -0.0179185 -0.0168041 -0.0238834 -0.0224139 -0.0168041 -0.0154343 -0.0224139 -0.0206129 -0.0238834 -0.0224139 -0.0284953 -0.0267615 -0.0224139 -0.0206129 -0.0267615 -0.0246386 -0.0154343 -0.0138314 -0.0206129 -0.0185101 -0.0138314 -0.0120286 -0.0185101 -0.0161491 -0.0206129 -0.0185101 -0.0246386 -0.022161 -0.0185101 -0.0161491 -0.022161 -0.0193794 -0.0312394 -0.0311905 -0.0352747 -0.0352241 -0.0311905 -0.0307176 -0.0352241 -0.0347001 -0.0352747 -0.0352241 -0.038737 -0.0386996 -0.0352241 -0.0347001 -0.0386996 -0.0381475 -0.0307176 -0.029818 -0.0347001 -0.033699 -0.029818 -0.0284953 -0.033699 -0.0322245 -0.0347001 -0.033699 -0.0381475 -0.0370749 -0.033699 -0.0322245 -0.0370749 -0.0354836 -0.038737 -0.0386996 -0.0419899 -0.0419837 -0.0386996 -0.0381475 -0.0419837 -0.0414245 -0.0419899 -0.0419837 -0.0453188 -0.0453644 -0.0419837 -0.0414245 -0.0453644 -0.0448191 -0.0381475 -0.0370749 -0.0414245 -0.0403035 -0.0370749 -0.0354836 -0.0403035 -0.0386191 -0.0414245 -0.0403035 -0.0448191 -0.0436691 -0.0403035 -0.0386191 -0.0436691 -0.0419081 -0.0284953 -0.0267615 -0.0322245 -0.0302886 -0.0267615 -0.0246386 -0.0302886 -0.0279151 -0.0322245 -0.0302886 -0.0354836 -0.0333851 -0.0302886 -0.0279151 -0.0333851 -0.0308027 -0.0246386 -0.022161 -0.0279151 -0.0251414 -0.022161 -0.0193794 -0.0251414 -0.0220229 -0.0279151 -0.0251414 -0.0308027 -0.0277754 -0.0251414 -0.0220229 -0.0277754 -0.024362 -0.0354836 -0.0333851 -0.0386191 -0.0363802 -0.0333851 -0.0308027 -0.0363802 -0.0336085 -0.0386191 -0.0363802 -0.0419081 -0.0395401 -0.0363802 -0.0336085 -0.0395401 -0.0365836 -0.0308027 -0.0277754 -0.0336085 -0.0303431 -0.0277754 -0.024362 -0.0303431 -0.0266455 -0.0336085 -0.0303431 -0.0365836 -0.0330766 -0.0303431 -0.0266455 -0.0330766 -0.0290826 -5.47232e-05 -4.06699e-05 -0.00672354 -0.00559181 -4.06699e-05 -2.54476e-05 -0.00559181 -0.00440761 -0.00672354 -0.00559181 -0.0120286 -0.0100736 -0.00559181 -0.00440761 -0.0100736 -0.00803222 -2.54476e-05 -9.45169e-06 -0.00440761 -0.00322644 -9.45169e-06 4.55535e-06 -0.00322644 -0.00210811 -0.00440761 -0.00322644 -0.00803222 -0.00599449 -0.00322644 -0.00210811 -0.00599449 -0.00405994 -0.0120286 -0.0100736 -0.0161491 -0.0135915 -0.0100736 -0.00803222 -0.0135915 -0.0109205 -0.0161491 -0.0135915 -0.0193794 -0.0163647 -0.0135915 -0.0109205 -0.0163647 -0.0132114 -0.00803222 -0.00599449 -0.0109205 -0.00824707 -0.00599449 -0.00405994 -0.00824707 -0.00569427 -0.0109205 -0.00824707 -0.0132114 -0.0100442 -0.00824707 -0.00569427 -0.0100442 -0.00700242 4.55535e-06 1.65817e-05 -0.00210811 -0.00119489 1.65817e-05 5.61773e-05 -0.00119489 -0.000252754 -0.00210811 -0.00119489 -0.00405994 -0.00242363 -0.00119489 -0.000252754 -0.00242363 -0.000858257 5.61773e-05 -1.38667e-05 -0.000252754 -0.00105876 -1.38667e-05 0.00850277 -0.00105876 0.00755154 -0.000252754 -0.00105876 -0.000858257 -0.00128663 -0.00105876 0.00755154 -0.00128663 0.0078659 -0.00405994 -0.00242363 -0.00569427 -0.00348266 -0.00242363 -0.000858257 -0.00348266 -0.00141294 -0.00569427 -0.00348266 -0.00700242 -0.00432609 -0.00348266 -0.00141294 -0.00432609 -0.00184861 -0.000858257 -0.00128663 -0.00141294 -0.00146593 -0.00128663 0.0078659 -0.00146593 0.0077124 -0.00141294 -0.00146593 -0.00184861 -0.00158435 -0.00146593 0.0077124 -0.00158435 0.00761835 -0.0193794 -0.0163647 -0.0220229 -0.018637 -0.0163647 -0.0132114 -0.018637 -0.0150872 -0.0220229 -0.018637 -0.024362 -0.0206456 -0.018637 -0.0150872 -0.0206456 -0.0167383 -0.0132114 -0.0100442 -0.0150872 -0.0115094 -0.0100442 -0.00700242 -0.0115094 -0.008058 -0.0150872 -0.0115094 -0.0167383 -0.0127881 -0.0115094 -0.008058 -0.0127881 -0.00896595 -0.024362 -0.0206456 -0.0266455 -0.0226046 -0.0206456 -0.0167383 -0.0226046 -0.0183423 -0.0266455 -0.0226046 -0.0290826 -0.0246969 -0.0226046 -0.0183423 -0.0246969 -0.0200531 -0.0167383 -0.0127881 -0.0183423 -0.014021 -0.0127881 -0.00896595 -0.014021 -0.00983148 -0.0183423 -0.014021 -0.0200531 -0.0153318 -0.014021 -0.00983148 -0.0153318 -0.0107469 -0.00700242 -0.00432609 -0.008058 -0.00499352 -0.00432609 -0.00184861 -0.00499352 -0.00217984 -0.008058 -0.00499352 -0.00896595 -0.00555571 -0.00499352 -0.00217984 -0.00555571 -0.00244895 -0.00184861 -0.00158435 -0.00217984 -0.00167375 -0.00158435 0.00761835 -0.00167375 0.00759565 -0.00217984 -0.00167375 -0.00244895 -0.00175317 -0.00167375 0.00759565 -0.00175317 0.00763994 -0.00896595 -0.00555571 -0.00983148 -0.00608409 -0.00555571 -0.00244895 -0.00608409 -0.00269528 -0.00983148 -0.00608409 -0.0107469 -0.00664 -0.00608409 -0.00269528 -0.00664 -0.00295117 -0.00244895 -0.00175317 -0.00269528 -0.00183488 -0.00175317 0.00763994 -0.00183488 0.00775427 -0.00269528 -0.00183488 -0.00295117 -0.00192889 -0.00183488 0.00775427 -0.00192889 0.00793821 -0.0453188 -0.0453644 -0.048937 -0.0490583 -0.0453644 -0.0448191 -0.0490583 -0.0485495 -0.048937 -0.0490583 -0.0529977 -0.0532234 -0.0490583 -0.0485495 -0.0532234 -0.0527779 -0.0448191 -0.0436691 -0.0485495 -0.04739 -0.0436691 -0.0419081 -0.04739 -0.0455663 -0.0485495 -0.04739 -0.0527779 -0.0516319 -0.04739 -0.0455663 -0.0516319 -0.0497621 -0.0529977 -0.0532234 -0.0576091 -0.0579739 -0.0532234 -0.0527779 -0.0579739 -0.0576257 -0.0576091 -0.0579739 -0.0628471 -0.0633935 -0.0579739 -0.0576257 -0.0633935 -0.0631866 -0.0527779 -0.0516319 -0.0576257 -0.056524 -0.0516319 -0.0497621 -0.056524 -0.0546323 -0.0576257 -0.056524 -0.0631866 -0.0621723 -0.056524 -0.0546323 -0.0621723 -0.0602967 -0.0419081 -0.0395401 -0.0455663 -0.0430755 -0.0395401 -0.0365836 -0.0430755 -0.0399304 -0.0455663 -0.0430755 -0.0497621 -0.0471554 -0.0430755 -0.0399304 -0.0471554 -0.0438159 -0.0365836 -0.0330766 -0.0399304 -0.0361662 -0.0330766 -0.0290826 -0.0361662 -0.0318475 -0.0399304 -0.0361662 -0.0438159 -0.0397732 -0.0361662 -0.0318475 -0.0397732 -0.0350916 -0.0497621 -0.0471554 -0.0546323 -0.0519234 -0.0471554 -0.0438159 -0.0519234 -0.0483882 -0.0546323 -0.0519234 -0.0602967 -0.057513 -0.0519234 -0.0483882 -0.057513 -0.0537922 -0.0438159 -0.0397732 -0.0483882 -0.0440461 -0.0397732 -0.0350916 -0.0440461 -0.0389588 -0.0483882 -0.0440461 -0.0537922 -0.0491379 -0.0440461 -0.0389588 -0.0491379 -0.0436032 -0.0628471 -0.0633935 -0.068764 -0.0695438 -0.0633935 -0.0631866 -0.0695438 -0.0695357 -0.068764 -0.0695438 -0.0753925 -0.0764677 -0.0695438 -0.0695357 -0.0764677 -0.0767319 -0.0631866 -0.0621723 -0.0695357 -0.0686691 -0.0621723 -0.0602967 -0.0686691 -0.0668678 -0.0695357 -0.0686691 -0.0767319 -0.0760955 -0.0686691 -0.0668678 -0.0760955 -0.074455 -0.0753925 -0.0764677 -0.0827428 -0.0841856 -0.0764677 -0.0767319 -0.0841856 -0.0848133 -0.0827428 -0.0841856 -0.0907936 -0.0926823 -0.0841856 -0.0848133 -0.0926823 -0.0937812 -0.0767319 -0.0760955 -0.0848133 -0.0845164 -0.0760955 -0.074455 -0.0845164 -0.0831596 -0.0848133 -0.0845164 -0.0937812 -0.0939622 -0.0845164 -0.0831596 -0.0939622 -0.0930552 -0.0602967 -0.057513 -0.0668678 -0.0640586 -0.057513 -0.0537922 -0.0640586 -0.060184 -0.0668678 -0.0640586 -0.074455 -0.0717021 -0.0640586 -0.060184 -0.0717021 -0.0677388 -0.0537922 -0.0491379 -0.060184 -0.0552214 -0.0491379 -0.0436032 -0.0552214 -0.0492069 -0.060184 -0.0552214 -0.0677388 -0.0625025 -0.0552214 -0.0492069 -0.0625025 -0.0559972 -0.074455 -0.0717021 -0.0831596 -0.0805896 -0.0717021 -0.0677388 -0.0805896 -0.0766533 -0.0831596 -0.0805896 -0.0930552 -0.0908531 -0.0805896 -0.0766533 -0.0908531 -0.087