# vtk DataFile Version 3.0
#This file was generated by the deal.II library on 2026/1/5 at 14:19:31
ASCII
DATASET UNSTRUCTURED_GRID

POINTS 4096 double
0 0 0
0.03125 0 0
0 0.03125 0
0.03125 0.03125 0
0.03125 0 0
0.0625 0 0
0.03125 0.03125 0
0.0625 0.03125 0
0 0.03125 0
0.03125 0.03125 0
0 0.0625 0
0.03125 0.0625 0
0.03125 0.03125 0
0.0625 0.03125 0
0.03125 0.0625 0
0.0625 0.0625 0
0.0625 0 0
0.09375 0 0
0.0625 0.03125 0
0.09375 0.03125 0
0.09375 0 0
0.125 0 0
0.09375 0.03125 0
0.125 0.03125 0
0.0625 0.03125 0
0.09375 0.03125 0
0.0625 0.0625 0
0.09375 0.0625 0
0.09375 0.03125 0
0.125 0.03125 0
0.09375 0.0625 0
0.125 0.0625 0
0 0.0625 0
0.03125 0.0625 0
0 0.09375 0
0.03125 0.09375 0
0.03125 0.0625 0
0.0625 0.0625 0
0.03125 0.09375 0
0.0625 0.09375 0
0 0.09375 0
0.03125 0.09375 0
0 0.125 0
0.03125 0.125 0
0.03125 0.09375 0
0.0625 0.09375 0
0.03125 0.125 0
0.0625 0.125 0
0.0625 0.0625 0
0.09375 0.0625 0
0.0625 0.09375 0
0.09375 0.09375 0
0.09375 0.0625 0
0.125 0.0625 0
0.09375 0.09375 0
0.125 0.09375 0
0.0625 0.09375 0
0.09375 0.09375 0
0.0625 0.125 0
0.09375 0.125 0
0.09375 0.09375 0
0.125 0.09375 0
0.09375 0.125 0
0.125 0.125 0
0.125 0 0
0.15625 0 0
0.125 0.03125 0
0.15625 0.03125 0
0.15625 0 0
0.1875 0 0
0.15625 0.03125 0
0.1875 0.03125 0
0.125 0.03125 0
0.15625 0.03125 0
0.125 0.0625 0
0.15625 0.0625 0
0.15625 0.03125 0
0.1875 0.03125 0
0.15625 0.0625 0
0.1875 0.0625 0
0.1875 0 0
0.21875 0 0
0.1875 0.03125 0
0.21875 0.03125 0
0.21875 0 0
0.25 0 0
0.21875 0.03125 0
0.25 0.03125 0
0.1875 0.03125 0
0.21875 0.03125 0
0.1875 0.0625 0
0.21875 0.0625 0
0.21875 0.03125 0
0.25 0.03125 0
0.21875 0.0625 0
0.25 0.0625 0
0.125 0.0625 0
0.15625 0.0625 0
0.125 0.09375 0
0.15625 0.09375 0
0.15625 0.0625 0
0.1875 0.0625 0
0.15625 0.09375 0
0.1875 0.09375 0
0.125 0.09375 0
0.15625 0.09375 0
0.125 0.125 0
0.15625 0.125 0
0.15625 0.09375 0
0.1875 0.09375 0
0.15625 0.125 0
0.1875 0.125 0
0.1875 0.0625 0
0.21875 0.0625 0
0.1875 0.09375 0
0.21875 0.09375 0
0.21875 0.0625 0
0.25 0.0625 0
0.21875 0.09375 0
0.25 0.09375 0
0.1875 0.09375 0
0.21875 0.09375 0
0.1875 0.125 0
0.21875 0.125 0
0.21875 0.09375 0
0.25 0.09375 0
0.21875 0.125 0
0.25 0.125 0
0 0.125 0
0.03125 0.125 0
0 0.15625 0
0.03125 0.15625 0
0.03125 0.125 0
0.0625 0.125 0
0.03125 0.15625 0
0.0625 0.15625 0
0 0.15625 0
0.03125 0.15625 0
0 0.1875 0
0.03125 0.1875 0
0.03125 0.15625 0
0.0625 0.15625 0
0.03125 0.1875 0
0.0625 0.1875 0
0.0625 0.125 0
0.09375 0.125 0
0.0625 0.15625 0
0.09375 0.15625 0
0.09375 0.125 0
0.125 0.125 0
0.09375 0.15625 0
0.125 0.15625 0
0.0625 0.15625 0
0.09375 0.15625 0
0.0625 0.1875 0
0.09375 0.1875 0
0.09375 0.15625 0
0.125 0.15625 0
0.09375 0.1875 0
0.125 0.1875 0
0 0.1875 0
0.03125 0.1875 0
0 0.21875 0
0.03125 0.21875 0
0.03125 0.1875 0
0.0625 0.1875 0
0.03125 0.21875 0
0.0625 0.21875 0
0 0.21875 0
0.03125 0.21875 0
0 0.25 0
0.03125 0.25 0
0.03125 0.21875 0
0.0625 0.21875 0
0.03125 0.25 0
0.0625 0.25 0
0.0625 0.1875 0
0.09375 0.1875 0
0.0625 0.21875 0
0.09375 0.21875 0
0.09375 0.1875 0
0.125 0.1875 0
0.09375 0.21875 0
0.125 0.21875 0
0.0625 0.21875 0
0.09375 0.21875 0
0.0625 0.25 0
0.09375 0.25 0
0.09375 0.21875 0
0.125 0.21875 0
0.09375 0.25 0
0.125 0.25 0
0.125 0.125 0
0.15625 0.125 0
0.125 0.15625 0
0.15625 0.15625 0
0.15625 0.125 0
0.1875 0.125 0
0.15625 0.15625 0
0.1875 0.15625 0
0.125 0.15625 0
0.15625 0.15625 0
0.125 0.1875 0
0.15625 0.1875 0
0.15625 0.15625 0
0.1875 0.15625 0
0.15625 0.1875 0
0.1875 0.1875 0
0.1875 0.125 0
0.21875 0.125 0
0.1875 0.15625 0
0.21875 0.15625 0
0.21875 0.125 0
0.25 0.125 0
0.21875 0.15625 0
0.25 0.15625 0
0.1875 0.15625 0
0.21875 0.15625 0
0.1875 0.1875 0
0.21875 0.1875 0
0.21875 0.15625 0
0.25 0.15625 0
0.21875 0.1875 0
0.25 0.1875 0
0.125 0.1875 0
0.15625 0.1875 0
0.125 0.21875 0
0.15625 0.21875 0
0.15625 0.1875 0
0.1875 0.1875 0
0.15625 0.21875 0
0.1875 0.21875 0
0.125 0.21875 0
0.15625 0.21875 0
0.125 0.25 0
0.15625 0.25 0
0.15625 0.21875 0
0.1875 0.21875 0
0.15625 0.25 0
0.1875 0.25 0
0.1875 0.1875 0
0.21875 0.1875 0
0.1875 0.21875 0
0.21875 0.21875 0
0.21875 0.1875 0
0.25 0.1875 0
0.21875 0.21875 0
0.25 0.21875 0
0.1875 0.21875 0
0.21875 0.21875 0
0.1875 0.25 0
0.21875 0.25 0
0.21875 0.21875 0
0.25 0.21875 0
0.21875 0.25 0
0.25 0.25 0
0.25 0 0
0.28125 0 0
0.25 0.03125 0
0.28125 0.03125 0
0.28125 0 0
0.3125 0 0
0.28125 0.03125 0
0.3125 0.03125 0
0.25 0.03125 0
0.28125 0.03125 0
0.25 0.0625 0
0.28125 0.0625 0
0.28125 0.03125 0
0.3125 0.03125 0
0.28125 0.0625 0
0.3125 0.0625 0
0.3125 0 0
0.34375 0 0
0.3125 0.03125 0
0.34375 0.03125 0
0.34375 0 0
0.375 0 0
0.34375 0.03125 0
0.375 0.03125 0
0.3125 0.03125 0
0.34375 0.03125 0
0.3125 0.0625 0
0.34375 0.0625 0
0.34375 0.03125 0
0.375 0.03125 0
0.34375 0.0625 0
0.375 0.0625 0
0.25 0.0625 0
0.28125 0.0625 0
0.25 0.09375 0
0.28125 0.09375 0
0.28125 0.0625 0
0.3125 0.0625 0
0.28125 0.09375 0
0.3125 0.09375 0
0.25 0.09375 0
0.28125 0.09375 0
0.25 0.125 0
0.28125 0.125 0
0.28125 0.09375 0
0.3125 0.09375 0
0.28125 0.125 0
0.3125 0.125 0
0.3125 0.0625 0
0.34375 0.0625 0
0.3125 0.09375 0
0.34375 0.09375 0
0.34375 0.0625 0
0.375 0.0625 0
0.34375 0.09375 0
0.375 0.09375 0
0.3125 0.09375 0
0.34375 0.09375 0
0.3125 0.125 0
0.34375 0.125 0
0.34375 0.09375 0
0.375 0.09375 0
0.34375 0.125 0
0.375 0.125 0
0.375 0 0
0.40625 0 0
0.375 0.03125 0
0.40625 0.03125 0
0.40625 0 0
0.4375 0 0
0.40625 0.03125 0
0.4375 0.03125 0
0.375 0.03125 0
0.40625 0.03125 0
0.375 0.0625 0
0.40625 0.0625 0
0.40625 0.03125 0
0.4375 0.03125 0
0.40625 0.0625 0
0.4375 0.0625 0
0.4375 0 0
0.46875 0 0
0.4375 0.03125 0
0.46875 0.03125 0
0.46875 0 0
0.5 0 0
0.46875 0.03125 0
0.5 0.03125 0
0.4375 0.03125 0
0.46875 0.03125 0
0.4375 0.0625 0
0.46875 0.0625 0
0.46875 0.03125 0
0.5 0.03125 0
0.46875 0.0625 0
0.5 0.0625 0
0.375 0.0625 0
0.40625 0.0625 0
0.375 0.09375 0
0.40625 0.09375 0
0.40625 0.0625 0
0.4375 0.0625 0
0.40625 0.09375 0
0.4375 0.09375 0
0.375 0.09375 0
0.40625 0.09375 0
0.375 0.125 0
0.40625 0.125 0
0.40625 0.09375 0
0.4375 0.09375 0
0.40625 0.125 0
0.4375 0.125 0
0.4375 0.0625 0
0.46875 0.0625 0
0.4375 0.09375 0
0.46875 0.09375 0
0.46875 0.0625 0
0.5 0.0625 0
0.46875 0.09375 0
0.5 0.09375 0
0.4375 0.09375 0
0.46875 0.09375 0
0.4375 0.125 0
0.46875 0.125 0
0.46875 0.09375 0
0.5 0.09375 0
0.46875 0.125 0
0.5 0.125 0
0.25 0.125 0
0.28125 0.125 0
0.25 0.15625 0
0.28125 0.15625 0
0.28125 0.125 0
0.3125 0.125 0
0.28125 0.15625 0
0.3125 0.15625 0
0.25 0.15625 0
0.28125 0.15625 0
0.25 0.1875 0
0.28125 0.1875 0
0.28125 0.15625 0
0.3125 0.15625 0
0.28125 0.1875 0
0.3125 0.1875 0
0.3125 0.125 0
0.34375 0.125 0
0.3125 0.15625 0
0.34375 0.15625 0
0.34375 0.125 0
0.375 0.125 0
0.34375 0.15625 0
0.375 0.15625 0
0.3125 0.15625 0
0.34375 0.15625 0
0.3125 0.1875 0
0.34375 0.1875 0
0.34375 0.15625 0
0.375 0.15625 0
0.34375 0.1875 0
0.375 0.1875 0
0.25 0.1875 0
0.28125 0.1875 0
0.25 0.21875 0
0.28125 0.21875 0
0.28125 0.1875 0
0.3125 0.1875 0
0.28125 0.21875 0
0.3125 0.21875 0
0.25 0.21875 0
0.28125 0.21875 0
0.25 0.25 0
0.28125 0.25 0
0.28125 0.21875 0
0.3125 0.21875 0
0.28125 0.25 0
0.3125 0.25 0
0.3125 0.1875 0
0.34375 0.1875 0
0.3125 0.21875 0
0.34375 0.21875 0
0.34375 0.1875 0
0.375 0.1875 0
0.34375 0.21875 0
0.375 0.21875 0
0.3125 0.21875 0
0.34375 0.21875 0
0.3125 0.25 0
0.34375 0.25 0
0.34375 0.21875 0
0.375 0.21875 0
0.34375 0.25 0
0.375 0.25 0
0.375 0.125 0
0.40625 0.125 0
0.375 0.15625 0
0.40625 0.15625 0
0.40625 0.125 0
0.4375 0.125 0
0.40625 0.15625 0
0.4375 0.15625 0
0.375 0.15625 0
0.40625 0.15625 0
0.375 0.1875 0
0.40625 0.1875 0
0.40625 0.15625 0
0.4375 0.15625 0
0.40625 0.1875 0
0.4375 0.1875 0
0.4375 0.125 0
0.46875 0.125 0
0.4375 0.15625 0
0.46875 0.15625 0
0.46875 0.125 0
0.5 0.125 0
0.46875 0.15625 0
0.5 0.15625 0
0.4375 0.15625 0
0.46875 0.15625 0
0.4375 0.1875 0
0.46875 0.1875 0
0.46875 0.15625 0
0.5 0.15625 0
0.46875 0.1875 0
0.5 0.1875 0
0.375 0.1875 0
0.40625 0.1875 0
0.375 0.21875 0
0.40625 0.21875 0
0.40625 0.1875 0
0.4375 0.1875 0
0.40625 0.21875 0
0.4375 0.21875 0
0.375 0.21875 0
0.40625 0.21875 0
0.375 0.25 0
0.40625 0.25 0
0.40625 0.21875 0
0.4375 0.21875 0
0.40625 0.25 0
0.4375 0.25 0
0.4375 0.1875 0
0.46875 0.1875 0
0.4375 0.21875 0
0.46875 0.21875 0
0.46875 0.1875 0
0.5 0.1875 0
0.46875 0.21875 0
0.5 0.21875 0
0.4375 0.21875 0
0.46875 0.21875 0
0.4375 0.25 0
0.46875 0.25 0
0.46875 0.21875 0
0.5 0.21875 0
0.46875 0.25 0
0.5 0.25 0
0 0.25 0
0.03125 0.25 0
0 0.28125 0
0.03125 0.28125 0
0.03125 0.25 0
0.0625 0.25 0
0.03125 0.28125 0
0.0625 0.28125 0
0 0.28125 0
0.03125 0.28125 0
0 0.3125 0
0.03125 0.3125 0
0.03125 0.28125 0
0.0625 0.28125 0
0.03125 0.3125 0
0.0625 0.3125 0
0.0625 0.25 0
0.09375 0.25 0
0.0625 0.28125 0
0.09375 0.28125 0
0.09375 0.25 0
0.125 0.25 0
0.09375 0.28125 0
0.125 0.28125 0
0.0625 0.28125 0
0.09375 0.28125 0
0.0625 0.3125 0
0.09375 0.3125 0
0.09375 0.28125 0
0.125 0.28125 0
0.09375 0.3125 0
0.125 0.3125 0
0 0.3125 0
0.03125 0.3125 0
0 0.34375 0
0.03125 0.34375 0
0.03125 0.3125 0
0.0625 0.3125 0
0.03125 0.34375 0
0.0625 0.34375 0
0 0.34375 0
0.03125 0.34375 0
0 0.375 0
0.03125 0.375 0
0.03125 0.34375 0
0.0625 0.34375 0
0.03125 0.375 0
0.0625 0.375 0
0.0625 0.3125 0
0.09375 0.3125 0
0.0625 0.34375 0
0.09375 0.34375 0
0.09375 0.3125 0
0.125 0.3125 0
0.09375 0.34375 0
0.125 0.34375 0
0.0625 0.34375 0
0.09375 0.34375 0
0.0625 0.375 0
0.09375 0.375 0
0.09375 0.34375 0
0.125 0.34375 0
0.09375 0.375 0
0.125 0.375 0
0.125 0.25 0
0.15625 0.25 0
0.125 0.28125 0
0.15625 0.28125 0
0.15625 0.25 0
0.1875 0.25 0
0.15625 0.28125 0
0.1875 0.28125 0
0.125 0.28125 0
0.15625 0.28125 0
0.125 0.3125 0
0.15625 0.3125 0
0.15625 0.28125 0
0.1875 0.28125 0
0.15625 0.3125 0
0.1875 0.3125 0
0.1875 0.25 0
0.21875 0.25 0
0.1875 0.28125 0
0.21875 0.28125 0
0.21875 0.25 0
0.25 0.25 0
0.21875 0.28125 0
0.25 0.28125 0
0.1875 0.28125 0
0.21875 0.28125 0
0.1875 0.3125 0
0.21875 0.3125 0
0.21875 0.28125 0
0.25 0.28125 0
0.21875 0.3125 0
0.25 0.3125 0
0.125 0.3125 0
0.15625 0.3125 0
0.125 0.34375 0
0.15625 0.34375 0
0.15625 0.3125 0
0.1875 0.3125 0
0.15625 0.34375 0
0.1875 0.34375 0
0.125 0.34375 0
[...]
POINT_DATA 4096
SCALARS u_x double 1
LOOKUP_TABLE default
1.05884e-05 1.53285e-05 -5.34163e-05 -0.000142737 1.53285e-05 1.55034e-05 -0.000142737 -0.000634905 -5.34163e-05 -0.000142737 -0.000164131 -0.000334016 -0.000142737 -0.000634905 -0.000334016 -0.00125234 1.55034e-05 3.28722e-06 -0.000634905 -0.00139098 3.28722e-06 -1.27279e-05 -0.00139098 -0.00230263 -0.000634905 -0.00139098 -0.00125234 -0.00253603 -0.00139098 -0.00230263 -0.00253603 -0.00404379 -0.000164131 -0.000334016 -0.000226935 -0.000466135 -0.000334016 -0.00125234 -0.000466135 -0.00168498 -0.000226935 -0.000466135 -0.000204422 -0.000550748 -0.000466135 -0.00168498 -0.000550748 -0.00195166 -0.00125234 -0.00253603 -0.00168498 -0.00332896 -0.00253603 -0.00404379 -0.00332896 -0.00522258 -0.00168498 -0.00332896 -0.00195166 -0.00383537 -0.00332896 -0.00522258 -0.00383537 -0.00598074 -1.27279e-05 -2.8949e-05 -0.00230263 -0.00327065 -2.8949e-05 -4.42197e-05 -0.00327065 -0.00423401 -0.00230263 -0.00327065 -0.00404379 -0.00563545 -0.00327065 -0.00423401 -0.00563545 -0.00722077 -4.42197e-05 -5.83615e-05 -0.00423401 -0.00515796 -5.83615e-05 -7.14066e-05 -0.00515796 -0.00602291 -0.00423401 -0.00515796 -0.00722077 -0.00874382 -0.00515796 -0.00602291 -0.00874382 -0.0101709 -0.00404379 -0.00563545 -0.00522258 -0.00720541 -0.00563545 -0.00722077 -0.00720541 -0.00917532 -0.00522258 -0.00720541 -0.00598074 -0.00821376 -0.00720541 -0.00917532 -0.00821376 -0.0104251 -0.00722077 -0.00874382 -0.00917532 -0.0110669 -0.00874382 -0.0101709 -0.0110669 -0.0128392 -0.00917532 -0.0110669 -0.0104251 -0.0125455 -0.0110669 -0.0128392 -0.0125455 -0.0145306 -0.000204422 -0.000550748 -8.66328e-05 -0.000615556 -0.000550748 -0.00195166 -0.000615556 -0.0021194 -8.66328e-05 -0.000615556 0.000127563 -0.000681614 -0.000615556 -0.0021194 -0.000681614 -0.00224712 -0.00195166 -0.00383537 -0.0021194 -0.00417307 -0.00383537 -0.00598074 -0.00417307 -0.00649686 -0.0021194 -0.00417307 -0.00224712 -0.00444436 -0.00417307 -0.00649686 -0.00444436 -0.00691832 0.000127563 -0.000681614 0.000438724 -0.000761139 -0.000681614 -0.00224712 -0.000761139 -0.00237224 0.000438724 -0.000761139 0.000849244 -0.000860438 -0.000761139 -0.00237224 -0.000860438 -0.0025147 -0.00224712 -0.00444436 -0.00237224 -0.00471654 -0.00444436 -0.00691832 -0.00471654 -0.00734231 -0.00237224 -0.00471654 -0.0025147 -0.00502714 -0.00471654 -0.00734231 -0.00502714 -0.00782389 -0.00598074 -0.00821376 -0.00649686 -0.00890811 -0.00821376 -0.0104251 -0.00890811 -0.0112898 -0.00649686 -0.00890811 -0.00691832 -0.00948279 -0.00890811 -0.0112898 -0.00948279 -0.0120114 -0.0104251 -0.0125455 -0.0112898 -0.01357 -0.0125455 -0.0145306 -0.01357 -0.0157028 -0.0112898 -0.01357 -0.0120114 -0.0144291 -0.01357 -0.0157028 -0.0144291 -0.0166884 -0.00691832 -0.00948279 -0.00734231 -0.0100642 -0.00948279 -0.0120114 -0.0100642 -0.0127446 -0.00734231 -0.0100642 -0.00782389 -0.0107239 -0.0100642 -0.0127446 -0.0107239 -0.0135766 -0.0120114 -0.0144291 -0.0127446 -0.0153048 -0.0144291 -0.0166884 -0.0153048 -0.017695 -0.0127446 -0.0153048 -0.0135766 -0.0162985 -0.0153048 -0.017695 -0.0162985 -0.0188371 -7.14066e-05 -8.33698e-05 -0.00602291 -0.00681637 -8.33698e-05 -9.4205e-05 -0.00681637 -0.00752884 -0.00602291 -0.00681637 -0.0101709 -0.01148 -0.00681637 -0.00752884 -0.01148 -0.0126543 -9.4205e-05 -0.000103824 -0.00752884 -0.00815223 -0.000103824 -0.00011212 -0.00815223 -0.00867937 -0.00752884 -0.00815223 -0.0126543 -0.0136802 -0.00815223 -0.00867937 -0.0136802 -0.0145459 -0.0101709 -0.01148 -0.0128392 -0.0144642 -0.01148 -0.0126543 -0.0144642 -0.015921 -0.0128392 -0.0144642 -0.0145306 -0.0163499 -0.0144642 -0.015921 -0.0163499 -0.01798 -0.0126543 -0.0136802 -0.015921 -0.0171924 -0.0136802 -0.0145459 -0.0171924 -0.0182636 -0.015921 -0.0171924 -0.01798 -0.0194016 -0.0171924 -0.0182636 -0.0194016 -0.0205987 -0.00011212 -0.000118979 -0.00867937 -0.00910398 -0.000118979 -0.000124294 -0.00910398 -0.00942071 -0.00867937 -0.00910398 -0.0145459 -0.0152412 -0.00910398 -0.00942071 -0.0152412 -0.0157575 -0.000124294 -0.00012797 -0.00942071 -0.00962521 -0.00012797 -0.000129927 -0.00962521 -0.00971421 -0.00942071 -0.00962521 -0.0157575 -0.0160881 -0.00962521 -0.00971421 -0.0160881 -0.0162278 -0.0145459 -0.0152412 -0.0182636 -0.0191223 -0.0152412 -0.0157575 -0.0191223 -0.0197582 -0.0182636 -0.0191223 -0.0205987 -0.0215575 -0.0191223 -0.0197582 -0.0215575 -0.0222668 -0.0157575 -0.0160881 -0.0197582 -0.0201632 -0.0160881 -0.0162278 -0.0201632 -0.0203313 -0.0197582 -0.0201632 -0.0222668 -0.0227178 -0.0201632 -0.0203313 -0.0227178 -0.0229041 -0.0145306 -0.0163499 -0.0157028 -0.0176562 -0.0163499 -0.01798 -0.0176562 -0.0194056 -0.0157028 -0.0176562 -0.0166884 -0.0187563 -0.0176562 -0.0194056 -0.0187563 -0.0206077 -0.01798 -0.0194016 -0.0194056 -0.020931 -0.0194016 -0.0205987 -0.020931 -0.0222152 -0.0194056 -0.020931 -0.0206077 -0.0222218 -0.020931 -0.0222152 -0.0222218 -0.0235813 -0.0166884 -0.0187563 -0.017695 -0.0198813 -0.0187563 -0.0206077 -0.0198813 -0.0218379 -0.017695 -0.0198813 -0.0188371 -0.0211573 -0.0198813 -0.0218379 -0.0211573 -0.0232328 -0.0206077 -0.0222218 -0.0218379 -0.0235439 -0.0222218 -0.0235813 -0.0235439 -0.0249817 -0.0218379 -0.0235439 -0.0232328 -0.0250424 -0.0235439 -0.0249817 -0.0250424 -0.0265686 -0.0205987 -0.0215575 -0.0222152 -0.0232441 -0.0215575 -0.0222668 -0.0232441 -0.0240059 -0.0222152 -0.0232441 -0.0235813 -0.0246716 -0.0232441 -0.0240059 -0.0246716 -0.0254805 -0.0222668 -0.0227178 -0.0240059 -0.0244912 -0.0227178 -0.0229041 -0.0244912 -0.0246933 -0.0240059 -0.0244912 -0.0254805 -0.0259985 -0.0244912 -0.0246933 -0.0259985 -0.0262183 -0.0235813 -0.0246716 -0.0249817 -0.0261364 -0.0246716 -0.0254805 -0.0261364 -0.0269959 -0.0249817 -0.0261364 -0.0265686 -0.0277966 -0.0261364 -0.0269959 -0.0277966 -0.0287141 -0.0254805 -0.0259985 -0.0269959 -0.0275502 -0.0259985 -0.0262183 -0.0275502 -0.027792 -0.0269959 -0.0275502 -0.0287141 -0.0293113 -0.0275502 -0.027792 -0.0293113 -0.0295802 0.000849244 -0.000860438 0.0013638 -0.000982894 -0.000860438 -0.0025147 -0.000982894 -0.00268435 0.0013638 -0.000982894 0.0019892 -0.00113095 -0.000982894 -0.00268435 -0.00113095 -0.00288681 -0.0025147 -0.00502714 -0.00268435 -0.00539584 -0.00502714 -0.00782389 -0.00539584 -0.00839266 -0.00268435 -0.00539584 -0.00288681 -0.00583445 -0.00539584 -0.00839266 -0.00583445 -0.00906663 0.0019892 -0.00113095 0.00273423 -0.00130715 -0.00113095 -0.00288681 -0.00130715 -0.00312679 0.00273423 -0.00130715 0.00360965 -0.00151459 -0.00130715 -0.00312679 -0.00151459 -0.00340972 -0.00288681 -0.00583445 -0.00312679 -0.00635291 -0.00583445 -0.00906663 -0.00635291 -0.00986083 -0.00312679 -0.00635291 -0.00340972 -0.00696237 -0.00635291 -0.00986083 -0.00696237 -0.0107918 -0.00782389 -0.0107239 -0.00839266 -0.0115009 -0.0107239 -0.0135766 -0.0115009 -0.0145543 -0.00839266 -0.0115009 -0.00906663 -0.0124187 -0.0115009 -0.0145543 -0.0124187 -0.0157062 -0.0135766 -0.0162985 -0.0145543 -0.0174642 -0.0162985 -0.0188371 -0.0174642 -0.0201749 -0.0145543 -0.0174642 -0.0157062 -0.0188344 -0.0174642 -0.0201749 -0.0188344 -0.0217437 -0.00906663 -0.0124187 -0.00986083 -0.013497 -0.0124187 -0.0157062 -0.013497 -0.0170555 -0.00986083 -0.013497 -0.0107918 -0.0147569 -0.013497 -0.0170555 -0.0147569 -0.0186268 -0.0157062 -0.0188344 -0.0170555 -0.0204346 -0.0188344 -0.0217437 -0.0204346 -0.0235708 -0.0170555 -0.0204346 -0.0186268 -0.0222917 -0.0204346 -0.0235708 -0.0222917 -0.0256836 0.00360965 -0.00151459 0.00462838 -0.0017572 -0.00151459 -0.00340972 -0.0017572 -0.00374265 0.00462838 -0.0017572 0.00580573 -0.00204 -0.0017572 -0.00374265 -0.00204 -0.00413501 -0.00340972 -0.00696237 -0.00374265 -0.00767697 -0.00696237 -0.0107918 -0.00767697 -0.01188 -0.00374265 -0.00767697 -0.00413501 -0.00851528 -0.00767697 -0.01188 -0.00851528 -0.0131521 0.00580573 -0.00204 0.00715989 -0.00236945 -0.00204 -0.00413501 -0.00236945 -0.00459959 0.00715989 -0.00236945 0.00871247 -0.00275401 -0.00236945 -0.00459959 -0.00275401 -0.00515394 -0.00413501 -0.00851528 -0.00459959 -0.00950204 -0.00851528 -0.0131521 -0.00950204 -0.0146434 -0.00459959 -0.00950204 -0.00515394 -0.0106707 -0.00950204 -0.0146434 -0.0106707 -0.0164005 -0.0107918 -0.0147569 -0.01188 -0.0162245 -0.0147569 -0.0186268 -0.0162245 -0.0204498 -0.01188 -0.0162245 -0.0131521 -0.0179327 -0.0162245 -0.0204498 -0.0179327 -0.0225617 -0.0186268 -0.0222917 -0.0204498 -0.0244372 -0.0222917 -0.0256836 -0.0244372 -0.0281141 -0.0204498 -0.0244372 -0.0225617 -0.02691 -0.0244372 -0.0281141 -0.02691 -0.0309007 -0.0131521 -0.0179327 -0.0146434 -0.0199246 -0.0179327 -0.0225617 -0.0199246 -0.02501 -0.0146434 -0.0199246 -0.0164005 -0.0222568 -0.0199246 -0.02501 -0.0222568 -0.0278559 -0.0225617 -0.02691 -0.02501 -0.0297588 -0.02691 -0.0309007 -0.0297588 -0.0340903 -0.02501 -0.0297588 -0.0278559 -0.0330449 -0.0297588 -0.0340903 -0.0330449 -0.0377406 -0.0188371 -0.0211573 -0.0201749 -0.0226499 -0.0211573 -0.0232328 -0.0226499 -0.0248622 -0.0201749 -0.0226499 -0.0217437 -0.0243963 -0.0226499 -0.0248622 -0.0243963 -0.0267651 -0.0232328 -0.0250424 -0.0248622 -0.0267909 -0.0250424 -0.0265686 -0.0267909 -0.0284185 -0.0248622 -0.0267909 -0.0267651 -0.0288291 -0.0267909 -0.0284185 -0.0288291 -0.0305719 -0.0217437 -0.0243963 -0.0235708 -0.0264247 -0.0243963 -0.0267651 -0.0264247 -0.0289693 -0.0235708 -0.0264247 -0.0256836 -0.0287623 -0.0264247 -0.0289693 -0.0287623 -0.0315014 -0.0267651 -0.0288291 -0.0289693 -0.0311848 -0.0288291 -0.0305719 -0.0311848 -0.0330559 -0.0289693 -0.0311848 -0.0315014 -0.033883 -0.0311848 -0.0330559 -0.033883 -0.0358943 -0.0265686 -0.0277966 -0.0284185 -0.0297307 -0.0277966 -0.0287141 -0.0297307 -0.0307155 -0.0284185 -0.0297307 -0.0305719 -0.0319798 -0.0297307 -0.0307155 -0.0319798 -0.0330416 -0.0287141 -0.0293113 -0.0307155 -0.0313631 -0.0293113 -0.0295802 -0.0313631 -0.031665 -0.0307155 -0.0313631 -0.0330416 -0.0337476 -0.0313631 -0.031665 -0.0337476 -0.0340894 -0.0305719 -0.0319798 -0.0330559 -0.0345706 -0.0319798 -0.0330416 -0.0345706 -0.0357189 -0.0330559 -0.0345706 -0.0358943 -0.0375257 -0.0345706 -0.0357189 -0.0375257 -0.0387692 -0.0330416 -0.0337476 -0.0357189 -0.0364918 -0.0337476 -0.0340894 -0.0364918 -0.0368808 -0.0357189 -0.0364918 -0.0387692 -0.0396172 -0.0364918 -0.0368808 -0.0396172 -0.0400619 -0.0256836 -0.0287623 -0.0281141 -0.0314399 -0.0287623 -0.0315014 -0.0314399 -0.0343902 -0.0281141 -0.0314399 -0.0309007 -0.0344939 -0.0314399 -0.0343902 -0.0344939 -0.0376687 -0.0315014 -0.033883 -0.0343902 -0.0369503 -0.033883 -0.0358943 -0.0369503 -0.039111 -0.0343902 -0.0369503 -0.0376687 -0.0404155 -0.0369503 -0.039111 -0.0404155 -0.0427311 -0.0309007 -0.0344939 -0.0340903 -0.0379671 -0.0344939 -0.0376687 -0.0379671 -0.0413744 -0.0340903 -0.0379671 -0.0377406 -0.0419109 -0.0379671 -0.0413744 -0.0419109 -0.0455507 -0.0376687 -0.0404155 -0.0413744 -0.0443105 -0.0404155 -0.0427311 -0.0443105 -0.0467806 -0.0413744 -0.0443105 -0.0455507 -0.0486698 -0.0443105 -0.0467806 -0.0486698 -0.0512857 -0.0358943 -0.0375257 -0.039111 -0.0408667 -0.0375257 -0.0387692 -0.0408667 -0.0422127 -0.039111 -0.0408667 -0.0427311 -0.0446155 -0.0408667 -0.0422127 -0.0446155 -0.0460689 -0.0387692 -0.0396172 -0.0422127 -0.0431439 -0.0396172 -0.0400619 -0.0431439 -0.0436532 -0.0422127 -0.0431439 -0.0460689 -0.0470899 -0.0431439 -0.0436532 -0.0470899 -0.0476735 -0.0427311 -0.0446155 -0.0467806 -0.0487929 -0.0446155 -0.0460689 -0.0487929 -0.0503549 -0.0467806 -0.0487929 -0.0512857 -0.053418 -0.0487929 -0.0503549 -0.053418 -0.0550842 -0.0460689 -0.0470899 -0.0503549 -0.0514705 -0.0470899 -0.0476735 -0.0514705 -0.0521381 -0.0503549 -0.0514705 -0.0550842 -0.0562959 -0.0514705 -0.0521381 -0.0562959 -0.0570565 -0.000129927 -0.000130097 -0.00971421 -0.00968557 -0.000130097 -0.000128433 -0.00968557 -0.00953837 -0.00971421 -0.00968557 -0.0162278 -0.0161737 -0.00968557 -0.00953837 -0.0161737 -0.0159244 -0.000128433 -0.000124908 -0.00953837 -0.00927298 -0.000124908 -0.000119525 -0.00927298 -0.00889113 -0.00953837 -0.00927298 -0.0159244 -0.015481 -0.00927298 -0.00889113 -0.015481 -0.0148465 -0.0162278 -0.0161737 -0.0203313 -0.020259 -0.0161737 -0.0159244 -0.020259 -0.0199449 -0.0203313 -0.020259 -0.0229041 -0.0228218 -0.020259 -0.0199449 -0.0228218 -0.0224694 -0.0159244 -0.015481 -0.0199449 -0.0193905 -0.015481 -0.0148465 -0.0193905 -0.0185998 -0.0199449 -0.0193905 -0.0224694 -0.0218486 -0.0193905 -0.0185998 -0.0218486 -0.0209635 -0.000119525 -0.000112308 -0.00889113 -0.00839595 -0.000112308 -0.000103308 -0.00839595 -0.00779205 -0.00889113 -0.00839595 -0.0148465 -0.0140263 -0.00839595 -0.00779205 -0.0140263 -0.0130282 -0.000103308 -9.25932e-05 -0.00779205 -0.00708556 -9.25932e-05 -8.02496e-05 -0.00708556 -0.00628428 -0.00779205 -0.00708556 -0.0130282 -0.0118627 -0.00708556 -0.00628428 -0.0118627 -0.0105429 -0.0148465 -0.0140263 -0.0185998 -0.0175794 -0.0140263 -0.0130282 -0.0175794 -0.0163391 -0.0185998 -0.0175794 -0.0209635 -0.0198216 -0.0175794 -0.0163391 -0.0198216 -0.0184336 -0.0130282 -0.0118627 -0.0163391 -0.014892 -0.0118627 -0.0105429 -0.014892 -0.0132548 -0.0163391 -0.014892 -0.0184336 -0.0168139 -0.014892 -0.0132548 -0.0168139 -0.0149811 -0.0229041 -0.0228218 -0.0246933 -0.024608 -0.0228218 -0.0224694 -0.024608 -0.0242336 -0.0246933 -0.024608 -0.0262183 -0.0261355 -0.024608 -0.0242336 -0.0261355 -0.0257478 -0.0224694 -0.0218486 -0.0242336 -0.0235713 -0.0218486 -0.0209635 -0.0235713 -0.0226254 -0.0242336 -0.0235713 -0.0257478 -0.0250558 -0.0235713 -0.0226254 -0.0250558 -0.0240633 -0.0262183 -0.0261355 -0.027792 -0.0277159 -0.0261355 -0.0257478 -0.0277159 -0.0273192 -0.027792 -0.0277159 -0.0295802 -0.0295148 -0.0277159 -0.0273192 -0.0295148 -0.0291115 -0.0257478 -0.0250558 -0.0273192 -0.0266015 -0.0250558 -0.0240633 -0.0266015 -0.0255656 -0.0273192 -0.0266015 -0.0291115 -0.0283686 -0.0266015 -0.0255656 -0.0283686 -0.0272876 -0.0209635 -0.0198216 -0.0226254 -0.0214033 -0.0198216 -0.0184336 -0.0214033 -0.0199158 -0.0226254 -0.0214033 -0.0240633 -0.0227771 -0.0214033 -0.0199158 -0.0227771 -0.021208 -0.0184336 -0.0168139 -0.0199158 -0.018178 -0.0168139 -0.0149811 -0.018178 -0.0162093 -0.0199158 -0.018178 -0.021208 -0.0193707 -0.018178 -0.0162093 -0.0193707 -0.0172851 -0.0240633 -0.0227771 -0.0255656 -0.0242174 -0.0227771 -0.021208 -0.0242174 -0.0225669 -0.0255656 -0.0242174 -0.0272876 -0.0258729 -0.0242174 -0.0225669 -0.0258729 -0.0241331 -0.021208 -0.0193707 -0.0225669 -0.0206284 -0.0193707 -0.0172851 -0.0206284 -0.0184216 -0.0225669 -0.0206284 -0.0241331 -0.0220815 -0.0206284 -0.0184216 -0.0220815 -0.0197375 -8.02496e-05 -6.63235e-05 -0.00628428 -0.00539839 -6.63235e-05 -5.0963e-05 -0.00539839 -0.0044415 -0.00628428 -0.00539839 -0.0105429 -0.00908646 -0.00539839 -0.0044415 -0.00908646 -0.00751721 -5.0963e-05 -3.37673e-05 -0.0044415 -0.00343934 -3.37673e-05 -1.74863e-05 -0.00343934 -0.00241401 -0.0044415 -0.00343934 -0.00751721 -0.00587615 -0.00343934 -0.00241401 -0.00587615 -0.00420559 -0.0105429 -0.00908646 -0.0132548 -0.0114496 -0.00908646 -0.00751721 -0.0114496 -0.009506 -0.0132548 -0.0114496 -0.0149811 -0.0129596 -0.0114496 -0.009506 -0.0129596 -0.0107822 -0.00751721 -0.00587615 -0.009506 -0.00747307 -0.00587615 -0.00420559 -0.00747307 -0.00540359 -0.009506 -0.00747307 -0.0107822 -0.00850172 -0.00747307 -0.00540359 -0.00850172 -0.00617588 -1.74863e-05 -2.44862e-07 -0.00241401 -0.00151996 -2.44862e-07 6.58272e-05 -0.00151996 -0.00034801 -0.00241401 -0.00151996 -0.00420559 -0.00270591 -0.00151996 -0.00034801 -0.00270591 -0.000949959 6.58272e-05 -3.01191e-05 -0.00034801 -0.00166451 -3.01191e-05 0.0128986 -0.00166451 0.0114663 -0.00034801 -0.00166451 -0.000949959 -0.00193433 -0.00166451 0.0114663 -0.00193433 0.0120337 -0.00420559 -0.00270591 -0.00540359 -0.00351282 -0.00270591 -0.000949959 -0.00351282 -0.00138499 -0.00540359 -0.00351282 -0.00617588 -0.00402795 -0.00351282 -0.00138499 -0.00402795 -0.00165654 -0.000949959 -0.00193433 -0.00138499 -0.00210321 -0.00193433 0.0120337 -0.00210321 0.0119365 -0.00138499 -0.00210321 -0.00165654 -0.00219005 -0.00210321 0.0119365 -0.00219005 0.0119527 -0.0149811 -0.0129596 -0.0162093 -0.0140353 -0.0129596 -0.0107822 -0.0140353 -0.0116906 -0.0162093 -0.0140353 -0.0172851 -0.0149775 -0.0140353 -0.0116906 -0.0149775 -0.012484 -0.0107822 -0.00850172 -0.0116906 -0.00923032 -0.00850172 -0.00617588 -0.00923032 -0.00671595 -0.0116906 -0.00923032 -0.012484 -0.00986227 -0.00923032 -0.00671595 -0.00986227 -0.00717835 -0.0172851 -0.0149775 -0.0184216 -0.0159735 -0.0149775 -0.012484 -0.0159735 -0.0133218 -0.0184216 -0.0159735 -0.0197375 -0.0171287 -0.0159735 -0.0133218 -0.0171287 -0.0142948 -0.012484 -0.00986227 -0.0133218 -0.0105277 -0.00986227 -0.00717835 -0.0105277 -0.00766327 -0.0133218 -0.0105277 -0.0142948 -0.0113014 -0.0105277 -0.00766327 -0.0113014 -0.00822796 -0.00617588 -0.00402795 -0.00671595 -0.00437962 -0.00402795 -0.00165654 -0.00437962 -0.00182925 -0.00671595 -0.00437962 -0.00717835 -0.00467579 -0.00437962 -0.00182925 -0.00467579 -0.00196802 -0.00165654 -0.00219005 -0.00182925 -0.00225498 -0.00219005 0.0119527 -0.00225498 0.012078 -0.00182925 -0.00225498 -0.00196802 -0.00232465 -0.00225498 0.012078 -0.00232465 0.0122973 -0.00717835 -0.00467579 -0.00766327 -0.00498598 -0.00467579 -0.00196802 -0.00498598 -0.0021112 -0.00766327 -0.00498598 -0.00822796 -0.00534897 -0.00498598 -0.0021112 -0.00534897 -0.00227904 -0.00196802 -0.00232465 -0.0021112 -0.00240998 -0.00232465 0.0122973 -0.00240998 0.0126139 -0.0021112 -0.00240998 -0.00227904 -0.0025174 -0.00240998 0.0126139 -0.0025174 0.0130298 -0.0295802 -0.0295148 -0.031665 -0.0316147 -0.0295148 -0.0291115 -0.0316147 -0.0312071 -0.031665 -0.0316147 -0.0340894 -0.0340593 -0.0316147 -0.0312071 -0.0340593 -0.033651 -0.0291115 -0.0283686 -0.0312071 -0.0304391 -0.0283686 -0.0272876 -0.0304391 -0.0293101 -0.0312071 -0.0304391 -0.033651 -0.032859 -0.0304391 -0.0293101 -0.032859 -0.0316802 -0.0340894 -0.0340593 -0.0368808 -0.0368777 -0.0340593 -0.033651 -0.0368777 -0.036474 -0.0368808 -0.0368777 -0.0400619 -0.040094 -0.0368777 -0.036474 -0.040094 -0.0397031 -0.033651 -0.032859 -0.036474 -0.0356617 -0.032859 -0.0316802 -0.0356617 -0.034434 -0.036474 -0.0356617 -0.0397031 -0.0388776 -0.0356617 -0.034434 -0.0388776 -0.037606 -0.0272876 -0.0258729 -0.0293101 -0.0278224 -0.0258729 -0.0241331 -0.0278224 -0.0259826 -0.0293101 -0.0278224 -0.0316802 -0.0301139 -0.0278224 -0.0259826 -0.0301139 -0.0281636 -0.0241331 -0.0220815 -0.0259826 -0.0238023 -0.0220815 -0.0197375 -0.0238023 -0.0213001 -0.0259826 -0.0238023 -0.0281636 -0.0258384 -0.0238023 -0.0213001 -0.0258384 -0.0231551 -0.0316802 -0.0301139 -0.034434 -0.032786 -0.0301139 -0.0281636 -0.032786 -0.030717 -0.034434 -0.032786 -0.037606 -0.0358777 -0.032786 -0.030717 -0.0358777 -0.0336858 -0.0281636 -0.0258384 -0.030717 -0.028232 -0.0258384 -0.0231551 -0.028232 -0.0253449 -0.030717 -0.028232 -0.0336858 -0.0310291 -0.028232 -0.0253449 -0.0310291 -0.0279168 -0.0400619 -0.040094 -0.0436532 -0.043731 -0.040094 -0.0397031 -0.043731 -0.0433645 -0.0436532 -0.043731 -0.0476735 -0.0478099 -0.043731 -0.0433645 -0.0478099 -0.0474835 -0.0397031 -0.0388776 -0.0433645 -0.0425377 -0.0388776 -0.037606 -0.0425377 -0.041233 -0.0433645 -0.0425377 -0.0474835 -0.0466735 -0.0425377 -0.041233 -0.0466735 -0.0453542 -0.0476735 -0.0478099 -0.0521381 -0.0523483 -0.0478099 -0.0474835 -0.0523483 -0.0520831 -0.0521381 -0.0523483 -0.0570565 -0.0573583 -0.0523483 -0.0520831 -0.0573583 -0.0571812 -0.0474835 -0.0466735 -0.0520831 -0.0513157 -0.0466735 -0.0453542 -0.0513157 -0.0500108 -0.0520831 -0.0513157 -0.0571812 -0.0564919 -0.0513157 -0.0500108 -0.0564919 -0.0552435 -0.037606 -0.0358777 -0.041233 -0.0394321 -0.0358777 -0.0336858 -0.0394321 -0.0371191 -0.041233 -0.0394321 -0.0453542 -0.0434972 -0.0394321 -0.0371191 -0.0434972 -0.0410743 -0.0336858 -0.0310291 -0.0371191 -0.0342841 -0.0310291 -0.0279168 -0.0342841 -0.0309285 -0.0371191 -0.0342841 -0.0410743 -0.0380627 -0.0342841 -0.0309285 -0.0380627 -0.0344515 -0.0453542 -0.0434972 -0.0500108 -0.0481264 -0.0434972 -0.0410743 -0.0481264 -0.0456181 -0.0500108 -0.0481264 -0.055243