# vtk DataFile Version 3.0
#This file was generated by the deal.II library on 2026/1/5 at 14:19:36
ASCII
DATASET UNSTRUCTURED_GRID

POINTS 4096 double
0 0 0
0.03125 0 0
0 0.03125 0
0.03125 0.03125 0
0.03125 0 0
0.0625 0 0
0.03125 0.03125 0
0.0625 0.03125 0
0 0.03125 0
0.03125 0.03125 0
0 0.0625 0
0.03125 0.0625 0
0.03125 0.03125 0
0.0625 0.03125 0
0.03125 0.0625 0
0.0625 0.0625 0
0.0625 0 0
0.09375 0 0
0.0625 0.03125 0
0.09375 0.03125 0
0.09375 0 0
0.125 0 0
0.09375 0.03125 0
0.125 0.03125 0
0.0625 0.03125 0
0.09375 0.03125 0
0.0625 0.0625 0
0.09375 0.0625 0
0.09375 0.03125 0
0.125 0.03125 0
0.09375 0.0625 0
0.125 0.0625 0
0 0.0625 0
0.03125 0.0625 0
0 0.09375 0
0.03125 0.09375 0
0.03125 0.0625 0
0.0625 0.0625 0
0.03125 0.09375 0
0.0625 0.09375 0
0 0.09375 0
0.03125 0.09375 0
0 0.125 0
0.03125 0.125 0
0.03125 0.09375 0
0.0625 0.09375 0
0.03125 0.125 0
0.0625 0.125 0
0.0625 0.0625 0
0.09375 0.0625 0
0.0625 0.09375 0
0.09375 0.09375 0
0.09375 0.0625 0
0.125 0.0625 0
0.09375 0.09375 0
0.125 0.09375 0
0.0625 0.09375 0
0.09375 0.09375 0
0.0625 0.125 0
0.09375 0.125 0
0.09375 0.09375 0
0.125 0.09375 0
0.09375 0.125 0
0.125 0.125 0
0.125 0 0
0.15625 0 0
0.125 0.03125 0
0.15625 0.03125 0
0.15625 0 0
0.1875 0 0
0.15625 0.03125 0
0.1875 0.03125 0
0.125 0.03125 0
0.15625 0.03125 0
0.125 0.0625 0
0.15625 0.0625 0
0.15625 0.03125 0
0.1875 0.03125 0
0.15625 0.0625 0
0.1875 0.0625 0
0.1875 0 0
0.21875 0 0
0.1875 0.03125 0
0.21875 0.03125 0
0.21875 0 0
0.25 0 0
0.21875 0.03125 0
0.25 0.03125 0
0.1875 0.03125 0
0.21875 0.03125 0
0.1875 0.0625 0
0.21875 0.0625 0
0.21875 0.03125 0
0.25 0.03125 0
0.21875 0.0625 0
0.25 0.0625 0
0.125 0.0625 0
0.15625 0.0625 0
0.125 0.09375 0
0.15625 0.09375 0
0.15625 0.0625 0
0.1875 0.0625 0
0.15625 0.09375 0
0.1875 0.09375 0
0.125 0.09375 0
0.15625 0.09375 0
0.125 0.125 0
0.15625 0.125 0
0.15625 0.09375 0
0.1875 0.09375 0
0.15625 0.125 0
0.1875 0.125 0
0.1875 0.0625 0
0.21875 0.0625 0
0.1875 0.09375 0
0.21875 0.09375 0
0.21875 0.0625 0
0.25 0.0625 0
0.21875 0.09375 0
0.25 0.09375 0
0.1875 0.09375 0
0.21875 0.09375 0
0.1875 0.125 0
0.21875 0.125 0
0.21875 0.09375 0
0.25 0.09375 0
0.21875 0.125 0
0.25 0.125 0
0 0.125 0
0.03125 0.125 0
0 0.15625 0
0.03125 0.15625 0
0.03125 0.125 0
0.0625 0.125 0
0.03125 0.15625 0
0.0625 0.15625 0
0 0.15625 0
0.03125 0.15625 0
0 0.1875 0
0.03125 0.1875 0
0.03125 0.15625 0
0.0625 0.15625 0
0.03125 0.1875 0
0.0625 0.1875 0
0.0625 0.125 0
0.09375 0.125 0
0.0625 0.15625 0
0.09375 0.15625 0
0.09375 0.125 0
0.125 0.125 0
0.09375 0.15625 0
0.125 0.15625 0
0.0625 0.15625 0
0.09375 0.15625 0
0.0625 0.1875 0
0.09375 0.1875 0
0.09375 0.15625 0
0.125 0.15625 0
0.09375 0.1875 0
0.125 0.1875 0
0 0.1875 0
0.03125 0.1875 0
0 0.21875 0
0.03125 0.21875 0
0.03125 0.1875 0
0.0625 0.1875 0
0.03125 0.21875 0
0.0625 0.21875 0
0 0.21875 0
0.03125 0.21875 0
0 0.25 0
0.03125 0.25 0
0.03125 0.21875 0
0.0625 0.21875 0
0.03125 0.25 0
0.0625 0.25 0
0.0625 0.1875 0
0.09375 0.1875 0
0.0625 0.21875 0
0.09375 0.21875 0
0.09375 0.1875 0
0.125 0.1875 0
0.09375 0.21875 0
0.125 0.21875 0
0.0625 0.21875 0
0.09375 0.21875 0
0.0625 0.25 0
0.09375 0.25 0
0.09375 0.21875 0
0.125 0.21875 0
0.09375 0.25 0
0.125 0.25 0
0.125 0.125 0
0.15625 0.125 0
0.125 0.15625 0
0.15625 0.15625 0
0.15625 0.125 0
0.1875 0.125 0
0.15625 0.15625 0
0.1875 0.15625 0
0.125 0.15625 0
0.15625 0.15625 0
0.125 0.1875 0
0.15625 0.1875 0
0.15625 0.15625 0
0.1875 0.15625 0
0.15625 0.1875 0
0.1875 0.1875 0
0.1875 0.125 0
0.21875 0.125 0
0.1875 0.15625 0
0.21875 0.15625 0
0.21875 0.125 0
0.25 0.125 0
0.21875 0.15625 0
0.25 0.15625 0
0.1875 0.15625 0
0.21875 0.15625 0
0.1875 0.1875 0
0.21875 0.1875 0
0.21875 0.15625 0
0.25 0.15625 0
0.21875 0.1875 0
0.25 0.1875 0
0.125 0.1875 0
0.15625 0.1875 0
0.125 0.21875 0
0.15625 0.21875 0
0.15625 0.1875 0
0.1875 0.1875 0
0.15625 0.21875 0
0.1875 0.21875 0
0.125 0.21875 0
0.15625 0.21875 0
0.125 0.25 0
0.15625 0.25 0
0.15625 0.21875 0
0.1875 0.21875 0
0.15625 0.25 0
0.1875 0.25 0
0.1875 0.1875 0
0.21875 0.1875 0
0.1875 0.21875 0
0.21875 0.21875 0
0.21875 0.1875 0
0.25 0.1875 0
0.21875 0.21875 0
0.25 0.21875 0
0.1875 0.21875 0
0.21875 0.21875 0
0.1875 0.25 0
0.21875 0.25 0
0.21875 0.21875 0
0.25 0.21875 0
0.21875 0.25 0
0.25 0.25 0
0.25 0 0
0.28125 0 0
0.25 0.03125 0
0.28125 0.03125 0
0.28125 0 0
0.3125 0 0
0.28125 0.03125 0
0.3125 0.03125 0
0.25 0.03125 0
0.28125 0.03125 0
0.25 0.0625 0
0.28125 0.0625 0
0.28125 0.03125 0
0.3125 0.03125 0
0.28125 0.0625 0
0.3125 0.0625 0
0.3125 0 0
0.34375 0 0
0.3125 0.03125 0
0.34375 0.03125 0
0.34375 0 0
0.375 0 0
0.34375 0.03125 0
0.375 0.03125 0
0.3125 0.03125 0
0.34375 0.03125 0
0.3125 0.0625 0
0.34375 0.0625 0
0.34375 0.03125 0
0.375 0.03125 0
0.34375 0.0625 0
0.375 0.0625 0
0.25 0.0625 0
0.28125 0.0625 0
0.25 0.09375 0
0.28125 0.09375 0
0.28125 0.0625 0
0.3125 0.0625 0
0.28125 0.09375 0
0.3125 0.09375 0
0.25 0.09375 0
0.28125 0.09375 0
0.25 0.125 0
0.28125 0.125 0
0.28125 0.09375 0
0.3125 0.09375 0
0.28125 0.125 0
0.3125 0.125 0
0.3125 0.0625 0
0.34375 0.0625 0
0.3125 0.09375 0
0.34375 0.09375 0
0.34375 0.0625 0
0.375 0.0625 0
0.34375 0.09375 0
0.375 0.09375 0
0.3125 0.09375 0
0.34375 0.09375 0
0.3125 0.125 0
0.34375 0.125 0
0.34375 0.09375 0
0.375 0.09375 0
0.34375 0.125 0
0.375 0.125 0
0.375 0 0
0.40625 0 0
0.375 0.03125 0
0.40625 0.03125 0
0.40625 0 0
0.4375 0 0
0.40625 0.03125 0
0.4375 0.03125 0
0.375 0.03125 0
0.40625 0.03125 0
0.375 0.0625 0
0.40625 0.0625 0
0.40625 0.03125 0
0.4375 0.03125 0
0.40625 0.0625 0
0.4375 0.0625 0
0.4375 0 0
0.46875 0 0
0.4375 0.03125 0
0.46875 0.03125 0
0.46875 0 0
0.5 0 0
0.46875 0.03125 0
0.5 0.03125 0
0.4375 0.03125 0
0.46875 0.03125 0
0.4375 0.0625 0
0.46875 0.0625 0
0.46875 0.03125 0
0.5 0.03125 0
0.46875 0.0625 0
0.5 0.0625 0
0.375 0.0625 0
0.40625 0.0625 0
0.375 0.09375 0
0.40625 0.09375 0
0.40625 0.0625 0
0.4375 0.0625 0
0.40625 0.09375 0
0.4375 0.09375 0
0.375 0.09375 0
0.40625 0.09375 0
0.375 0.125 0
0.40625 0.125 0
0.40625 0.09375 0
0.4375 0.09375 0
0.40625 0.125 0
0.4375 0.125 0
0.4375 0.0625 0
0.46875 0.0625 0
0.4375 0.09375 0
0.46875 0.09375 0
0.46875 0.0625 0
0.5 0.0625 0
0.46875 0.09375 0
0.5 0.09375 0
0.4375 0.09375 0
0.46875 0.09375 0
0.4375 0.125 0
0.46875 0.125 0
0.46875 0.09375 0
0.5 0.09375 0
0.46875 0.125 0
0.5 0.125 0
0.25 0.125 0
0.28125 0.125 0
0.25 0.15625 0
0.28125 0.15625 0
0.28125 0.125 0
0.3125 0.125 0
0.28125 0.15625 0
0.3125 0.15625 0
0.25 0.15625 0
0.28125 0.15625 0
0.25 0.1875 0
0.28125 0.1875 0
0.28125 0.15625 0
0.3125 0.15625 0
0.28125 0.1875 0
0.3125 0.1875 0
0.3125 0.125 0
0.34375 0.125 0
0.3125 0.15625 0
0.34375 0.15625 0
0.34375 0.125 0
0.375 0.125 0
0.34375 0.15625 0
0.375 0.15625 0
0.3125 0.15625 0
0.34375 0.15625 0
0.3125 0.1875 0
0.34375 0.1875 0
0.34375 0.15625 0
0.375 0.15625 0
0.34375 0.1875 0
0.375 0.1875 0
0.25 0.1875 0
0.28125 0.1875 0
0.25 0.21875 0
0.28125 0.21875 0
0.28125 0.1875 0
0.3125 0.1875 0
0.28125 0.21875 0
0.3125 0.21875 0
0.25 0.21875 0
0.28125 0.21875 0
0.25 0.25 0
0.28125 0.25 0
0.28125 0.21875 0
0.3125 0.21875 0
0.28125 0.25 0
0.3125 0.25 0
0.3125 0.1875 0
0.34375 0.1875 0
0.3125 0.21875 0
0.34375 0.21875 0
0.34375 0.1875 0
0.375 0.1875 0
0.34375 0.21875 0
0.375 0.21875 0
0.3125 0.21875 0
0.34375 0.21875 0
0.3125 0.25 0
0.34375 0.25 0
0.34375 0.21875 0
0.375 0.21875 0
0.34375 0.25 0
0.375 0.25 0
0.375 0.125 0
0.40625 0.125 0
0.375 0.15625 0
0.40625 0.15625 0
0.40625 0.125 0
0.4375 0.125 0
0.40625 0.15625 0
0.4375 0.15625 0
0.375 0.15625 0
0.40625 0.15625 0
0.375 0.1875 0
0.40625 0.1875 0
0.40625 0.15625 0
0.4375 0.15625 0
0.40625 0.1875 0
0.4375 0.1875 0
0.4375 0.125 0
0.46875 0.125 0
0.4375 0.15625 0
0.46875 0.15625 0
0.46875 0.125 0
0.5 0.125 0
0.46875 0.15625 0
0.5 0.15625 0
0.4375 0.15625 0
0.46875 0.15625 0
0.4375 0.1875 0
0.46875 0.1875 0
0.46875 0.15625 0
0.5 0.15625 0
0.46875 0.1875 0
0.5 0.1875 0
0.375 0.1875 0
0.40625 0.1875 0
0.375 0.21875 0
0.40625 0.21875 0
0.40625 0.1875 0
0.4375 0.1875 0
0.40625 0.21875 0
0.4375 0.21875 0
0.375 0.21875 0
0.40625 0.21875 0
0.375 0.25 0
0.40625 0.25 0
0.40625 0.21875 0
0.4375 0.21875 0
0.40625 0.25 0
0.4375 0.25 0
0.4375 0.1875 0
0.46875 0.1875 0
0.4375 0.21875 0
0.46875 0.21875 0
0.46875 0.1875 0
0.5 0.1875 0
0.46875 0.21875 0
0.5 0.21875 0
0.4375 0.21875 0
0.46875 0.21875 0
0.4375 0.25 0
0.46875 0.25 0
0.46875 0.21875 0
0.5 0.21875 0
0.46875 0.25 0
0.5 0.25 0
0 0.25 0
0.03125 0.25 0
0 0.28125 0
0.03125 0.28125 0
0.03125 0.25 0
0.0625 0.25 0
0.03125 0.28125 0
0.0625 0.28125 0
0 0.28125 0
0.03125 0.28125 0
0 0.3125 0
0.03125 0.3125 0
0.03125 0.28125 0
0.0625 0.28125 0
0.03125 0.3125 0
0.0625 0.3125 0
0.0625 0.25 0
0.09375 0.25 0
0.0625 0.28125 0
0.09375 0.28125 0
0.09375 0.25 0
0.125 0.25 0
0.09375 0.28125 0
0.125 0.28125 0
0.0625 0.28125 0
0.09375 0.28125 0
0.0625 0.3125 0
0.09375 0.3125 0
0.09375 0.28125 0
0.125 0.28125 0
0.09375 0.3125 0
0.125 0.3125 0
0 0.3125 0
0.03125 0.3125 0
0 0.34375 0
0.03125 0.34375 0
0.03125 0.3125 0
0.0625 0.3125 0
0.03125 0.34375 0
0.0625 0.34375 0
0 0.34375 0
0.03125 0.34375 0
0 0.375 0
0.03125 0.375 0
0.03125 0.34375 0
0.0625 0.34375 0
0.03125 0.375 0
0.0625 0.375 0
0.0625 0.3125 0
0.09375 0.3125 0
0.0625 0.34375 0
0.09375 0.34375 0
0.09375 0.3125 0
0.125 0.3125 0
0.09375 0.34375 0
0.125 0.34375 0
0.0625 0.34375 0
0.09375 0.34375 0
0.0625 0.375 0
0.09375 0.375 0
0.09375 0.34375 0
0.125 0.34375 0
0.09375 0.375 0
0.125 0.375 0
0.125 0.25 0
0.15625 0.25 0
0.125 0.28125 0
0.15625 0.28125 0
0.15625 0.25 0
0.1875 0.25 0
0.15625 0.28125 0
0.1875 0.28125 0
0.125 0.28125 0
0.15625 0.28125 0
0.125 0.3125 0
0.15625 0.3125 0
0.15625 0.28125 0
0.1875 0.28125 0
0.15625 0.3125 0
0.1875 0.3125 0
0.1875 0.25 0
0.21875 0.25 0
0.1875 0.28125 0
0.21875 0.28125 0
0.21875 0.25 0
0.25 0.25 0
0.21875 0.28125 0
0.25 0.28125 0
0.1875 0.28125 0
0.21875 0.28125 0
0.1875 0.3125 0
0.21875 0.3125 0
0.21875 0.28125 0
0.25 0.28125 0
0.21875 0.3125 0
0.25 0.3125 0
0.125 0.3125 0
0.15625 0.3125 0
0.125 0.34375 0
0.15625 0.34375 0
0.15625 0.3125 0
0.1875 0.3125 0
0.15625 0.34375 0
0.1875 0.34375 0
0.125 0.34375 0
[...]
POINT_DATA 4096
SCALARS u_x double 1
LOOKUP_TABLE default
-6.09011e-07 1.49212e-05 -4.73009e-05 -5.57343e-05 1.49212e-05 2.28022e-05 -5.57343e-05 -0.000380024 -4.73009e-05 -5.57343e-05 -0.000168642 -0.000221519 -5.57343e-05 -0.000380024 -0.000221519 -0.000964587 2.28022e-05 1.9834e-05 -0.000380024 -0.000994101 1.9834e-05 1.06606e-05 -0.000994101 -0.00185099 -0.000380024 -0.000994101 -0.000964587 -0.00214371 -0.000994101 -0.00185099 -0.00214371 -0.00369795 -0.000168642 -0.000221519 -0.000302227 -0.000378979 -0.000221519 -0.000964587 -0.000378979 -0.00152526 -0.000302227 -0.000378979 -0.000400012 -0.000506907 -0.000378979 -0.00152526 -0.000506907 -0.0019943 -0.000964587 -0.00214371 -0.00152526 -0.00321156 -0.00214371 -0.00369795 -0.00321156 -0.00535297 -0.00152526 -0.00321156 -0.0019943 -0.00411699 -0.00321156 -0.00535297 -0.00411699 -0.00675488 1.06606e-05 -1.14406e-06 -0.00185099 -0.0028684 -1.14406e-06 -1.36801e-05 -0.0028684 -0.00397193 -0.00185099 -0.0028684 -0.00369795 -0.0055041 -0.0028684 -0.00397193 -0.0055041 -0.00744942 -1.36801e-05 -2.60256e-05 -0.00397193 -0.00510079 -2.60256e-05 -3.77408e-05 -0.00510079 -0.00620878 -0.00397193 -0.00510079 -0.00744942 -0.00943602 -0.00510079 -0.00620878 -0.00943602 -0.011386 -0.00369795 -0.0055041 -0.00535297 -0.00779317 -0.0055041 -0.00744942 -0.00779317 -0.0103969 -0.00535297 -0.00779317 -0.00675488 -0.00971815 -0.00779317 -0.0103969 -0.00971815 -0.0128528 -0.00744942 -0.00943602 -0.0103969 -0.0130443 -0.00943602 -0.011386 -0.0130443 -0.0156378 -0.0103969 -0.0130443 -0.0128528 -0.0160242 -0.0130443 -0.0156378 -0.0160242 -0.0191219 -0.000400012 -0.000506907 -0.000437568 -0.000611195 -0.000506907 -0.0019943 -0.000611195 -0.00237105 -0.000437568 -0.000611195 -0.000402751 -0.000702897 -0.000611195 -0.00237105 -0.000702897 -0.00267832 -0.0019943 -0.00411699 -0.00237105 -0.00486272 -0.00411699 -0.00675488 -0.00486272 -0.00792236 -0.00237105 -0.00486272 -0.00267832 -0.00548743 -0.00486272 -0.00792236 -0.00548743 -0.00891368 -0.000402751 -0.000702897 -0.00028893 -0.000792391 -0.000702897 -0.00267832 -0.000792391 -0.00294343 -0.00028893 -0.000792391 -9.17285e-05 -0.000888363 -0.000792391 -0.00294343 -0.000888363 -0.00319158 -0.00267832 -0.00548743 -0.00294343 -0.00603967 -0.00548743 -0.00891368 -0.00603967 -0.00979975 -0.00294343 -0.00603967 -0.00319158 -0.00656608 -0.00603967 -0.00979975 -0.00656608 -0.0106494 -0.00675488 -0.00971815 -0.00792236 -0.0113283 -0.00971815 -0.0128528 -0.0113283 -0.0149073 -0.00792236 -0.0113283 -0.00891368 -0.0127077 -0.0113283 -0.0149073 -0.0127077 -0.0166763 -0.0128528 -0.0160242 -0.0149073 -0.018512 -0.0160242 -0.0191219 -0.018512 -0.0220228 -0.0149073 -0.018512 -0.0166763 -0.0206594 -0.018512 -0.0220228 -0.0206594 -0.0245295 -0.00891368 -0.0127077 -0.00979975 -0.0139519 -0.0127077 -0.0166763 -0.0139519 -0.0182821 -0.00979975 -0.0139519 -0.0106494 -0.0151524 -0.0139519 -0.0182821 -0.0151524 -0.0198392 -0.0166763 -0.0206594 -0.0182821 -0.0226176 -0.0206594 -0.0245295 -0.0226176 -0.0268229 -0.0182821 -0.0226176 -0.0198392 -0.0245241 -0.0226176 -0.0268229 -0.0245241 -0.0290633 -3.77408e-05 -4.86376e-05 -0.00620878 -0.00726168 -4.86376e-05 -5.86345e-05 -0.00726168 -0.00823407 -0.00620878 -0.00726168 -0.011386 -0.0132395 -0.00726168 -0.00823407 -0.0132395 -0.0149506 -5.86345e-05 -6.76811e-05 -0.00823407 -0.00910651 -6.76811e-05 -7.57182e-05 -0.00910651 -0.00986333 -0.00823407 -0.00910651 -0.0149506 -0.016484 -0.00910651 -0.00986333 -0.016484 -0.0178111 -0.011386 -0.0132395 -0.0156378 -0.0181002 -0.0132395 -0.0149506 -0.0181002 -0.0203714 -0.0156378 -0.0181002 -0.0191219 -0.022058 -0.0181002 -0.0203714 -0.022058 -0.0247627 -0.0149506 -0.016484 -0.0203714 -0.022404 -0.016484 -0.0178111 -0.022404 -0.0241597 -0.0203714 -0.022404 -0.0247627 -0.0271807 -0.022404 -0.0241597 -0.0271807 -0.029267 -7.57182e-05 -8.26557e-05 -0.00986333 -0.0104912 -8.26557e-05 -8.83713e-05 -0.0104912 -0.0109783 -0.00986333 -0.0104912 -0.0178111 -0.0189079 -0.0104912 -0.0109783 -0.0189079 -0.0197536 -8.83713e-05 -9.27217e-05 -0.0109783 -0.0113141 -9.27217e-05 -9.55505e-05 -0.0113141 -0.0114893 -0.0109783 -0.0113141 -0.0197536 -0.0203304 -0.0113141 -0.0114893 -0.0203304 -0.0206228 -0.0178111 -0.0189079 -0.0241597 -0.0256068 -0.0189079 -0.0197536 -0.0256068 -0.0267179 -0.0241597 -0.0256068 -0.029267 -0.0309841 -0.0256068 -0.0267179 -0.0309841 -0.0323001 -0.0197536 -0.0203304 -0.0267179 -0.0274698 -0.0203304 -0.0206228 -0.0274698 -0.0278428 -0.0267179 -0.0274698 -0.0323001 -0.0331875 -0.0274698 -0.0278428 -0.0331875 -0.0336236 -0.0191219 -0.022058 -0.0220228 -0.0253442 -0.022058 -0.0247627 -0.0253442 -0.0284008 -0.0220228 -0.0253442 -0.0245295 -0.0281857 -0.0253442 -0.0284008 -0.0281857 -0.0315481 -0.0247627 -0.0271807 -0.0284008 -0.0311318 -0.0271807 -0.029267 -0.0311318 -0.0334879 -0.0284008 -0.0311318 -0.0315481 -0.034553 -0.0311318 -0.0334879 -0.034553 -0.037148 -0.0245295 -0.0281857 -0.0268229 -0.0307921 -0.0281857 -0.0315481 -0.0307921 -0.0344426 -0.0268229 -0.0307921 -0.0290633 -0.0333465 -0.0307921 -0.0344426 -0.0333465 -0.0372884 -0.0315481 -0.034553 -0.0344426 -0.0377083 -0.034553 -0.037148 -0.0377083 -0.0405349 -0.0344426 -0.0377083 -0.0372884 -0.0408215 -0.0377083 -0.0405349 -0.0408215 -0.0438901 -0.029267 -0.0309841 -0.0334879 -0.0354274 -0.0309841 -0.0323001 -0.0354274 -0.036915 -0.0334879 -0.0354274 -0.037148 -0.0392886 -0.0354274 -0.036915 -0.0392886 -0.0409367 -0.0323001 -0.0331875 -0.036915 -0.0379201 -0.0331875 -0.0336236 -0.0379201 -0.0384171 -0.036915 -0.0379201 -0.0409367 -0.0420588 -0.0379201 -0.0384171 -0.0420588 -0.0426262 -0.037148 -0.0392886 -0.0405349 -0.0428759 -0.0392886 -0.0409367 -0.0428759 -0.0446907 -0.0405349 -0.0428759 -0.0438901 -0.0464464 -0.0428759 -0.0446907 -0.0464464 -0.0484473 -0.0409367 -0.0420588 -0.0446907 -0.0459427 -0.0420588 -0.0426262 -0.0459427 -0.0465998 -0.0446907 -0.0459427 -0.0484473 -0.0498533 -0.0459427 -0.0465998 -0.0498533 -0.0506276 -9.17285e-05 -0.000888363 0.000192825 -0.000997768 -0.000888363 -0.00319158 -0.000997768 -0.00344379 0.000192825 -0.000997768 0.000569326 -0.00112618 -0.000997768 -0.00344379 -0.00112618 -0.00371678 -0.00319158 -0.00656608 -0.00344379 -0.00710675 -0.00656608 -0.0106494 -0.00710675 -0.0115228 -0.00344379 -0.00710675 -0.00371678 -0.00769435 -0.00710675 -0.0115228 -0.00769435 -0.0124694 0.000569326 -0.00112618 0.00104362 -0.00127826 -0.00112618 -0.00371678 -0.00127826 -0.00402385 0.00104362 -0.00127826 0.00162313 -0.00145822 -0.00127826 -0.00402385 -0.00145822 -0.00437619 -0.00371678 -0.00769435 -0.00402385 -0.00835539 -0.00769435 -0.0124694 -0.00835539 -0.0135296 -0.00402385 -0.00835539 -0.00437619 -0.00911239 -0.00835539 -0.0135296 -0.00911239 -0.0147378 -0.0106494 -0.0151524 -0.0115228 -0.0163889 -0.0151524 -0.0198392 -0.0163889 -0.0214465 -0.0115228 -0.0163889 -0.0124694 -0.0177277 -0.0163889 -0.0214465 -0.0177277 -0.0231855 -0.0198392 -0.0245241 -0.0214465 -0.0264962 -0.0245241 -0.0290633 -0.0264962 -0.0313856 -0.0214465 -0.0264962 -0.0231855 -0.0286293 -0.0264962 -0.0313856 -0.0286293 -0.0338978 -0.0124694 -0.0177277 -0.0135296 -0.0192225 -0.0177277 -0.0231855 -0.0192225 -0.025122 -0.0135296 -0.0192225 -0.0147378 -0.0209184 -0.0192225 -0.025122 -0.0209184 -0.0273101 -0.0231855 -0.0286293 -0.025122 -0.0309995 -0.0286293 -0.0338978 -0.0309995 -0.0366845 -0.025122 -0.0309995 -0.0273101 -0.0336679 -0.0309995 -0.0366845 -0.0336679 -0.0398121 0.00162313 -0.00145822 0.00231704 -0.00167038 -0.00145822 -0.00437619 -0.00167038 -0.00478435 0.00231704 -0.00167038 0.00313661 -0.00191965 -0.00167038 -0.00478435 -0.00191965 -0.00525975 -0.00437619 -0.00911239 -0.00478435 -0.00998645 -0.00911239 -0.0147378 -0.00998645 -0.0161255 -0.00478435 -0.00998645 -0.00525975 -0.0110001 -0.00998645 -0.0161255 -0.0110001 -0.0177254 0.00313661 -0.00191965 0.0040954 -0.00221212 -0.00191965 -0.00525975 -0.00221212 -0.00581632 0.0040954 -0.00221212 0.00520977 -0.00255568 -0.00221212 -0.00581632 -0.00255568 -0.00647222 -0.00525975 -0.0110001 -0.00581632 -0.0121799 -0.0110001 -0.0177254 -0.0121799 -0.0195752 -0.00581632 -0.0121799 -0.00647222 -0.0135598 -0.0121799 -0.0195752 -0.0135598 -0.0217212 -0.0147378 -0.0209184 -0.0161255 -0.0228561 -0.0209184 -0.0273101 -0.0228561 -0.0297974 -0.0161255 -0.0228561 -0.0177254 -0.0250765 -0.0228561 -0.0297974 -0.0250765 -0.0326298 -0.0273101 -0.0336679 -0.0297974 -0.0366864 -0.0336679 -0.0398121 -0.0366864 -0.0433342 -0.0297974 -0.0366864 -0.0326298 -0.0401027 -0.0366864 -0.0433342 -0.0401027 -0.0472972 -0.0177254 -0.0250765 -0.0195752 -0.0276249 -0.0250765 -0.0326298 -0.0276249 -0.0358561 -0.0195752 -0.0276249 -0.0217212 -0.0305552 -0.0276249 -0.0358561 -0.0305552 -0.0395311 -0.0326298 -0.0401027 -0.0358561 -0.0439644 -0.0401027 -0.0472972 -0.0439644 -0.0517442 -0.0358561 -0.0439644 -0.0395311 -0.048322 -0.0439644 -0.0517442 -0.048322 -0.0567157 -0.0290633 -0.0333465 -0.0313856 -0.0359999 -0.0333465 -0.0372884 -0.0359999 -0.0402518 -0.0313856 -0.0359999 -0.0338978 -0.0388719 -0.0359999 -0.0402518 -0.0388719 -0.0434627 -0.0372884 -0.0408215 -0.0402518 -0.0440729 -0.0408215 -0.0438901 -0.0440729 -0.0474068 -0.0402518 -0.0440729 -0.0434627 -0.0476016 -0.0440729 -0.0474068 -0.0476016 -0.0512326 -0.0338978 -0.0388719 -0.0366845 -0.0420541 -0.0388719 -0.0434627 -0.0420541 -0.0470187 -0.0366845 -0.0420541 -0.0398121 -0.0456164 -0.0420541 -0.0470187 -0.0456164 -0.050992 -0.0434627 -0.0476016 -0.0470187 -0.0515108 -0.0476016 -0.0512326 -0.0515108 -0.0554757 -0.0470187 -0.0515108 -0.050992 -0.0558742 -0.0515108 -0.0554757 -0.0558742 -0.0602116 -0.0438901 -0.0464464 -0.0474068 -0.0502047 -0.0464464 -0.0484473 -0.0502047 -0.0524215 -0.0474068 -0.0502047 -0.0512326 -0.0543065 -0.0502047 -0.0524215 -0.0543065 -0.0567767 -0.0484473 -0.0498533 -0.0524215 -0.0540142 -0.0498533 -0.0506276 -0.0540142 -0.0549412 -0.0524215 -0.0540142 -0.0567767 -0.0585968 -0.0540142 -0.0549412 -0.0585968 -0.0597196 -0.0512326 -0.0543065 -0.0554757 -0.0588652 -0.0543065 -0.0567767 -0.0588652 -0.061632 -0.0554757 -0.0588652 -0.0602116 -0.0639586 -0.0588652 -0.061632 -0.0639586 -0.0670692 -0.0567767 -0.0585968 -0.061632 -0.063727 -0.0585968 -0.0597196 -0.063727 -0.065097 -0.061632 -0.063727 -0.0670692 -0.0694926 -0.063727 -0.065097 -0.0694926 -0.0711703 -0.0398121 -0.0456164 -0.0433342 -0.0496125 -0.0456164 -0.050992 -0.0496125 -0.0554351 -0.0433342 -0.0496125 -0.0472972 -0.0540851 -0.0496125 -0.0554351 -0.0540851 -0.0603855 -0.050992 -0.0558742 -0.0554351 -0.0607424 -0.0558742 -0.0602116 -0.0607424 -0.0654891 -0.0554351 -0.0607424 -0.0603855 -0.0661472 -0.0607424 -0.0654891 -0.0661472 -0.0713345 -0.0472972 -0.0540851 -0.0517442 -0.0590695 -0.0540851 -0.0603855 -0.0590695 -0.0658686 -0.0517442 -0.0590695 -0.0567157 -0.0645927 -0.0590695 -0.0658686 -0.0645927 -0.0718949 -0.0603855 -0.0661472 -0.0658686 -0.0721028 -0.0661472 -0.0713345 -0.0721028 -0.0777506 -0.0658686 -0.0721028 -0.0718949 -0.0786016 -0.0721028 -0.0777506 -0.0786016 -0.0847111 -0.0602116 -0.0639586 -0.0654891 -0.0696352 -0.0639586 -0.0670692 -0.0696352 -0.0731382 -0.0654891 -0.0696352 -0.0713345 -0.0759166 -0.0696352 -0.0731382 -0.0759166 -0.0798586 -0.0670692 -0.0694926 -0.0731382 -0.0759481 -0.0694926 -0.0711703 -0.0759481 -0.0780029 -0.0731382 -0.0759481 -0.0798586 -0.083115 -0.0759481 -0.0780029 -0.083115 -0.0856232 -0.0713345 -0.0759166 -0.0777506 -0.0827955 -0.0759166 -0.0798586 -0.0827955 -0.0872154 -0.0777506 -0.0827955 -0.0847111 -0.0902269 -0.0827955 -0.0872154 -0.0902269 -0.0951465 -0.0798586 -0.083115 -0.0872154 -0.0909744 -0.083115 -0.0856232 -0.0909744 -0.0940147 -0.0872154 -0.0909744 -0.0951465 -0.0994508 -0.0909744 -0.0940147 -0.0994508 -0.103094 -9.55505e-05 -9.66922e-05 -0.0114893 -0.0114962 -9.66922e-05 -9.59871e-05 -0.0114962 -0.011329 -0.0114893 -0.0114962 -0.0206228 -0.0206182 -0.0114962 -0.011329 -0.0206182 -0.0203081 -9.59871e-05 -9.32982e-05 -0.011329 -0.0109847 -9.32982e-05 -8.85242e-05 -0.0109847 -0.0104635 -0.011329 -0.0109847 -0.0203081 -0.0196883 -0.0109847 -0.0104635 -0.0196883 -0.0187607 -0.0206228 -0.0206182 -0.0278428 -0.0278214 -0.0206182 -0.0203081 -0.0278214 -0.0273952 -0.0278428 -0.0278214 -0.0336236 -0.0335906 -0.0278214 -0.0273952 -0.0335906 -0.0330764 -0.0203081 -0.0196883 -0.0273952 -0.02656 -0.0196883 -0.0187607 -0.02656 -0.0253193 -0.0273952 -0.02656 -0.0330764 -0.0320763 -0.02656 -0.0253193 -0.0320763 -0.0305949 -8.85242e-05 -8.16095e-05 -0.0104635 -0.00976984 -8.16095e-05 -7.25601e-05 -0.00976984 -0.00891364 -0.0104635 -0.00976984 -0.0187607 -0.0175346 -0.00976984 -0.00891364 -0.0175346 -0.0160287 -7.25601e-05 -6.14628e-05 -0.00891364 -0.00791161 -6.14628e-05 -4.85168e-05 -0.00791161 -0.006789 -0.00891364 -0.00791161 -0.0160287 -0.0142732 -0.00791161 -0.006789 -0.0142732 -0.0123129 -0.0187607 -0.0175346 -0.0253193 -0.0236864 -0.0175346 -0.0160287 -0.0236864 -0.021687 -0.0253193 -0.0236864 -0.0305949 -0.0286482 -0.0236864 -0.021687 -0.0286482 -0.0262662 -0.0160287 -0.0142732 -0.021687 -0.0193616 -0.0142732 -0.0123129 -0.0193616 -0.0167686 -0.021687 -0.0193616 -0.0262662 -0.0234968 -0.0193616 -0.0167686 -0.0234968 -0.0204083 -0.0336236 -0.0335906 -0.0384171 -0.0383854 -0.0335906 -0.0330764 -0.0383854 -0.0378111 -0.0384171 -0.0383854 -0.0426262 -0.0426151 -0.0383854 -0.0378111 -0.0426151 -0.0420085 -0.0330764 -0.0320763 -0.0378111 -0.0366881 -0.0320763 -0.0305949 -0.0366881 -0.0350202 -0.0378111 -0.0366881 -0.0420085 -0.0407972 -0.0366881 -0.0350202 -0.0407972 -0.038983 -0.0426262 -0.0426151 -0.0465998 -0.046634 -0.0426151 -0.0420085 -0.046634 -0.0460234 -0.0465998 -0.046634 -0.0506276 -0.0507371 -0.046634 -0.0460234 -0.0507371 -0.0501532 -0.0420085 -0.0407972 -0.0460234 -0.0447542 -0.0407972 -0.038983 -0.0447542 -0.0428235 -0.0460234 -0.0447542 -0.0501532 -0.048855 -0.0447542 -0.0428235 -0.048855 -0.0468326 -0.0305949 -0.0286482 -0.0350202 -0.0328244 -0.0286482 -0.0262662 -0.0328244 -0.0301335 -0.0350202 -0.0328244 -0.038983 -0.0365814 -0.0328244 -0.0301335 -0.0365814 -0.0336258 -0.0262662 -0.0234968 -0.0301335 -0.0269997 -0.0234968 -0.0204083 -0.0269997 -0.0234987 -0.0301335 -0.0269997 -0.0336258 -0.0301715 -0.0269997 -0.0234987 -0.0301715 -0.0262997 -0.038983 -0.0365814 -0.0428235 -0.0402436 -0.0365814 -0.0336258 -0.0402436 -0.0370463 -0.0428235 -0.0402436 -0.0468326 -0.044092 -0.0402436 -0.0370463 -0.044092 -0.040661 -0.0336258 -0.0301715 -0.0370463 -0.033288 -0.0301715 -0.0262997 -0.033288 -0.029055 -0.0370463 -0.033288 -0.040661 -0.0365957 -0.033288 -0.029055 -0.0365957 -0.031987 -4.85168e-05 -3.40643e-05 -0.006789 -0.0055815 -3.40643e-05 -1.87362e-05 -0.0055815 -0.00433669 -0.006789 -0.0055815 -0.0123129 -0.0102093 -0.0055815 -0.00433669 -0.0102093 -0.00804307 -1.87362e-05 -3.13846e-06 -0.00433669 -0.00311797 -3.13846e-06 9.96325e-06 -0.00311797 -0.00199131 -0.00433669 -0.00311797 -0.00804307 -0.00591744 -0.00311797 -0.00199131 -0.00591744 -0.00394162 -0.0123129 -0.0102093 -0.0167686 -0.0139878 -0.0102093 -0.00804307 -0.0139878 -0.0111215 -0.0167686 -0.0139878 -0.0204083 -0.0170929 -0.0139878 -0.0111215 -0.0170929 -0.0136683 -0.00804307 -0.00591744 -0.0111215 -0.00829787 -0.00591744 -0.00394162 -0.00829787 -0.00565277 -0.0111215 -0.00829787 -0.0136683 -0.0102797 -0.00829787 -0.00565277 -0.0102797 -0.00708302 9.96325e-06 2.02439e-05 -0.00199131 -0.00109276 2.02439e-05 5.40301e-05 -0.00109276 -0.000212668 -0.00199131 -0.00109276 -0.00394162 -0.00230392 -0.00109276 -0.000212668 -0.00230392 -0.000803178 5.40301e-05 -1.07699e-05 -0.000212668 -0.000933576 -1.07699e-05 0.00762967 -0.000933576 0.00678019 -0.000212668 -0.000933576 -0.000803178 -0.00114876 -0.000933576 0.00678019 -0.00114876 0.00704618 -0.00394162 -0.00230392 -0.00565277 -0.00340177 -0.00230392 -0.000803178 -0.00340177 -0.00137346 -0.00565277 -0.00340177 -0.00708302 -0.00431577 -0.00340177 -0.00137346 -0.00431577 -0.00184247 -0.000803178 -0.00114876 -0.00137346 -0.00132719 -0.00114876 0.00704618 -0.00132719 0.0068799 -0.00137346 -0.00132719 -0.00184247 -0.00145111 -0.00132719 0.0068799 -0.00145111 0.00676016 -0.0204083 -0.0170929 -0.0234987 -0.0197325 -0.0170929 -0.0136683 -0.0197325 -0.0158311 -0.0234987 -0.0197325 -0.0262997 -0.0221214 -0.0197325 -0.0158311 -0.0221214 -0.0177795 -0.0136683 -0.0102797 -0.0158311 -0.0119555 -0.0102797 -0.00708302 -0.0119555 -0.00828012 -0.0158311 -0.0119555 -0.0177795 -0.0134514 -0.0119555 -0.00828012 -0.0134514 -0.00933297 -0.0262997 -0.0221214 -0.029055 -0.0244681 -0.0221214 -0.0177795 -0.0244681 -0.0196845 -0.029055 -0.0244681 -0.031987 -0.0269664 -0.0244681 -0.0196845 -0.0269664 -0.0217087 -0.0177795 -0.0134514 -0.0196845 -0.0149018 -0.0134514 -0.00933297 -0.0149018 -0.0103409 -0.0196845 -0.0149018 -0.0217087 -0.0164359 -0.0149018 -0.0103409 -0.0164359 -0.0113995 -0.00708302 -0.00431577 -0.00828012 -0.00506642 -0.00431577 -0.00184247 -0.00506642 -0.00221384 -0.00828012 -0.00506642 -0.00933297 -0.00571263 -0.00506642 -0.00221384 -0.00571263 -0.00252282 -0.00184247 -0.00145111 -0.00221384 -0.00154653 -0.00145111 0.00676016 -0.00154653 0.00670068 -0.00221384 -0.00154653 -0.00252282 -0.00163005 -0.00154653 0.00670068 -0.00163005 0.00669928 -0.00933297 -0.00571263 -0.0103409 -0.00632118 -0.00571263 -0.00252282 -0.00632118 -0.002806 -0.0103409 -0.00632118 -0.0113995 -0.00695506 -0.00632118 -0.002806 -0.00695506 -0.0030964 -0.00252282 -0.00163005 -0.002806 -0.0017132 -0.00163005 0.00669928 -0.0017132 0.00675915 -0.002806 -0.0017132 -0.0030964 -0.00180609 -0.0017132 0.00675915 -0.00180609 0.00687928 -0.0506276 -0.0507371 -0.0549412 -0.0551623 -0.0507371 -0.0501532 -0.0551623 -0.0546406 -0.0549412 -0.0551623 -0.0597196 -0.0600967 -0.0551623 -0.0546406 -0.0600967 -0.0596803 -0.0501532 -0.048855 -0.0546406 -0.0533451 -0.048855 -0.0468326 -0.0533451 -0.0512555 -0.0546406 -0.0533451 -0.0596803 -0.0584265 -0.0533451 -0.0512555 -0.0584265 -0.0563004 -0.0597196 -0.0600967 -0.065097 -0.0656845 -0.0600967 -0.0596803 -0.0656845 -0.0654285 -0.065097 -0.0656845 -0.0711703 -0.0720349 -0.0656845 -0.0654285 -0.0720349 -0.0720102 -0.0596803 -0.0584265 -0.0654285 -0.0642682 -0.0584265 -0.0563004 -0.0642682 -0.0621492 -0.0654285 -0.0642682 -0.0720102 -0.0710144 -0.0642682 -0.0621492 -0.0710144 -0.0689677 -0.0468326 -0.044092 -0.0512555 -0.0483683 -0.044092 -0.040661 -0.0483683 -0.044704 -0.0512555 -0.0483683 -0.0563004 -0.0532842 -0.0483683 -0.044704 -0.0532842 -0.0493867 -0.040661 -0.0365957 -0.044704 -0.040316 -0.0365957 -0.031987 -0.040316 -0.0352991 -0.044704 -0.040316 -0.0493867 -0.0446548 -0.040316 -0.0352991 -0.0446548 -0.0391851 -0.0563004 -0.0532842 -0.0621492 -0.0590333 -0.0532842 -0.0493867 -0.0590333 -0.0549109 -0.0621492 -0.0590333 -0.0689677 -0.0658031 -0.0590333 -0.0549109 -0.0658031 -0.0614832 -0.0493867 -0.0446548 -0.0549109 -0.0498164 -0.0446548 -0.0391851 -0.0498164 -0.0438444 -0.0549109 -0.0498164 -0.0614832 -0.0560206 -0.0498164 -0.0438444 -0.0560206 -0.0495001 -0.0711703 -0.0720349 -0.0780029 -0.0792254 -0.0720349 -0.0720102 -0.0792254 -0.0795227 -0.0780029 -0.0792254 -0.0856232 -0.0872985 -0.0792254 -0.0795227 -0.0872985 -0.0880315 -0.0720102 -0.0710144 -0.0795227 -0.0787886 -0.0710144 -0.0689677 -0.0787886 -0.0769104 -0.0795227 -0.0787886 -0.0880315 -0.0876881 -0.0787886 -0.0769104 -0.0876881 -0.0861158 -0.0856232 -0.0872985 -0.0940147 -0.0962486 -0.0872985 -0.0880315 -0.0962486 -0.0975526 -0.0940147 -0.0962486 -0.103094 -0.105994 -0.0962486 -0.0975526 -0.105994 -0.108018 -0.0880315 -0.0876881 -0.0975526 -0.0977642 -0.0876881 -0.0861158 -0.0977642 -0.096685 -0.0975526 -0.0977642 -0.108018 -0.10898 -0.0977642 -0.096685 -0.10898 -0.108632 -0.0689677 -0.0658031 -0.0769104 -0.0737822 -0.0658031 -0.0614832 -0.0737822 -0.0693256 -0.0769104 -0.0737822 -0.0861158 -0.0831575 -0.0737822 -0.0693256 -0.0831575 -0.0786764 -0.0614832 -0.0560206 -0.0693256 -0.0635168 -0.0560206 -0.0495001 -0.0635168 -0.0564175 -0.0693256 -0.0635168 -0.0786764 -0.0725908 -0.0635168 -0.0564175 -0.0725908 -0.0649179 -0.0861158 -0.0831575 -0.096685 -0.0940933 -0.0831575 -0.0786764 -0.0940933 -0.0897724 -0.096685 -0.0940933 -0.108632 -0.106678 -0.0940933 -