# vtk DataFile Version 3.0
#This file was generated by the deal.II library on 2026/1/5 at 14:19:37
ASCII
DATASET UNSTRUCTURED_GRID

POINTS 4096 double
0 0 0
0.03125 0 0
0 0.03125 0
0.03125 0.03125 0
0.03125 0 0
0.0625 0 0
0.03125 0.03125 0
0.0625 0.03125 0
0 0.03125 0
0.03125 0.03125 0
0 0.0625 0
0.03125 0.0625 0
0.03125 0.03125 0
0.0625 0.03125 0
0.03125 0.0625 0
0.0625 0.0625 0
0.0625 0 0
0.09375 0 0
0.0625 0.03125 0
0.09375 0.03125 0
0.09375 0 0
0.125 0 0
0.09375 0.03125 0
0.125 0.03125 0
0.0625 0.03125 0
0.09375 0.03125 0
0.0625 0.0625 0
0.09375 0.0625 0
0.09375 0.03125 0
0.125 0.03125 0
0.09375 0.0625 0
0.125 0.0625 0
0 0.0625 0
0.03125 0.0625 0
0 0.09375 0
0.03125 0.09375 0
0.03125 0.0625 0
0.0625 0.0625 0
0.03125 0.09375 0
0.0625 0.09375 0
0 0.09375 0
0.03125 0.09375 0
0 0.125 0
0.03125 0.125 0
0.03125 0.09375 0
0.0625 0.09375 0
0.03125 0.125 0
0.0625 0.125 0
0.0625 0.0625 0
0.09375 0.0625 0
0.0625 0.09375 0
0.09375 0.09375 0
0.09375 0.0625 0
0.125 0.0625 0
0.09375 0.09375 0
0.125 0.09375 0
0.0625 0.09375 0
0.09375 0.09375 0
0.0625 0.125 0
0.09375 0.125 0
0.09375 0.09375 0
0.125 0.09375 0
0.09375 0.125 0
0.125 0.125 0
0.125 0 0
0.15625 0 0
0.125 0.03125 0
0.15625 0.03125 0
0.15625 0 0
0.1875 0 0
0.15625 0.03125 0
0.1875 0.03125 0
0.125 0.03125 0
0.15625 0.03125 0
0.125 0.0625 0
0.15625 0.0625 0
0.15625 0.03125 0
0.1875 0.03125 0
0.15625 0.0625 0
0.1875 0.0625 0
0.1875 0 0
0.21875 0 0
0.1875 0.03125 0
0.21875 0.03125 0
0.21875 0 0
0.25 0 0
0.21875 0.03125 0
0.25 0.03125 0
0.1875 0.03125 0
0.21875 0.03125 0
0.1875 0.0625 0
0.21875 0.0625 0
0.21875 0.03125 0
0.25 0.03125 0
0.21875 0.0625 0
0.25 0.0625 0
0.125 0.0625 0
0.15625 0.0625 0
0.125 0.09375 0
0.15625 0.09375 0
0.15625 0.0625 0
0.1875 0.0625 0
0.15625 0.09375 0
0.1875 0.09375 0
0.125 0.09375 0
0.15625 0.09375 0
0.125 0.125 0
0.15625 0.125 0
0.15625 0.09375 0
0.1875 0.09375 0
0.15625 0.125 0
0.1875 0.125 0
0.1875 0.0625 0
0.21875 0.0625 0
0.1875 0.09375 0
0.21875 0.09375 0
0.21875 0.0625 0
0.25 0.0625 0
0.21875 0.09375 0
0.25 0.09375 0
0.1875 0.09375 0
0.21875 0.09375 0
0.1875 0.125 0
0.21875 0.125 0
0.21875 0.09375 0
0.25 0.09375 0
0.21875 0.125 0
0.25 0.125 0
0 0.125 0
0.03125 0.125 0
0 0.15625 0
0.03125 0.15625 0
0.03125 0.125 0
0.0625 0.125 0
0.03125 0.15625 0
0.0625 0.15625 0
0 0.15625 0
0.03125 0.15625 0
0 0.1875 0
0.03125 0.1875 0
0.03125 0.15625 0
0.0625 0.15625 0
0.03125 0.1875 0
0.0625 0.1875 0
0.0625 0.125 0
0.09375 0.125 0
0.0625 0.15625 0
0.09375 0.15625 0
0.09375 0.125 0
0.125 0.125 0
0.09375 0.15625 0
0.125 0.15625 0
0.0625 0.15625 0
0.09375 0.15625 0
0.0625 0.1875 0
0.09375 0.1875 0
0.09375 0.15625 0
0.125 0.15625 0
0.09375 0.1875 0
0.125 0.1875 0
0 0.1875 0
0.03125 0.1875 0
0 0.21875 0
0.03125 0.21875 0
0.03125 0.1875 0
0.0625 0.1875 0
0.03125 0.21875 0
0.0625 0.21875 0
0 0.21875 0
0.03125 0.21875 0
0 0.25 0
0.03125 0.25 0
0.03125 0.21875 0
0.0625 0.21875 0
0.03125 0.25 0
0.0625 0.25 0
0.0625 0.1875 0
0.09375 0.1875 0
0.0625 0.21875 0
0.09375 0.21875 0
0.09375 0.1875 0
0.125 0.1875 0
0.09375 0.21875 0
0.125 0.21875 0
0.0625 0.21875 0
0.09375 0.21875 0
0.0625 0.25 0
0.09375 0.25 0
0.09375 0.21875 0
0.125 0.21875 0
0.09375 0.25 0
0.125 0.25 0
0.125 0.125 0
0.15625 0.125 0
0.125 0.15625 0
0.15625 0.15625 0
0.15625 0.125 0
0.1875 0.125 0
0.15625 0.15625 0
0.1875 0.15625 0
0.125 0.15625 0
0.15625 0.15625 0
0.125 0.1875 0
0.15625 0.1875 0
0.15625 0.15625 0
0.1875 0.15625 0
0.15625 0.1875 0
0.1875 0.1875 0
0.1875 0.125 0
0.21875 0.125 0
0.1875 0.15625 0
0.21875 0.15625 0
0.21875 0.125 0
0.25 0.125 0
0.21875 0.15625 0
0.25 0.15625 0
0.1875 0.15625 0
0.21875 0.15625 0
0.1875 0.1875 0
0.21875 0.1875 0
0.21875 0.15625 0
0.25 0.15625 0
0.21875 0.1875 0
0.25 0.1875 0
0.125 0.1875 0
0.15625 0.1875 0
0.125 0.21875 0
0.15625 0.21875 0
0.15625 0.1875 0
0.1875 0.1875 0
0.15625 0.21875 0
0.1875 0.21875 0
0.125 0.21875 0
0.15625 0.21875 0
0.125 0.25 0
0.15625 0.25 0
0.15625 0.21875 0
0.1875 0.21875 0
0.15625 0.25 0
0.1875 0.25 0
0.1875 0.1875 0
0.21875 0.1875 0
0.1875 0.21875 0
0.21875 0.21875 0
0.21875 0.1875 0
0.25 0.1875 0
0.21875 0.21875 0
0.25 0.21875 0
0.1875 0.21875 0
0.21875 0.21875 0
0.1875 0.25 0
0.21875 0.25 0
0.21875 0.21875 0
0.25 0.21875 0
0.21875 0.25 0
0.25 0.25 0
0.25 0 0
0.28125 0 0
0.25 0.03125 0
0.28125 0.03125 0
0.28125 0 0
0.3125 0 0
0.28125 0.03125 0
0.3125 0.03125 0
0.25 0.03125 0
0.28125 0.03125 0
0.25 0.0625 0
0.28125 0.0625 0
0.28125 0.03125 0
0.3125 0.03125 0
0.28125 0.0625 0
0.3125 0.0625 0
0.3125 0 0
0.34375 0 0
0.3125 0.03125 0
0.34375 0.03125 0
0.34375 0 0
0.375 0 0
0.34375 0.03125 0
0.375 0.03125 0
0.3125 0.03125 0
0.34375 0.03125 0
0.3125 0.0625 0
0.34375 0.0625 0
0.34375 0.03125 0
0.375 0.03125 0
0.34375 0.0625 0
0.375 0.0625 0
0.25 0.0625 0
0.28125 0.0625 0
0.25 0.09375 0
0.28125 0.09375 0
0.28125 0.0625 0
0.3125 0.0625 0
0.28125 0.09375 0
0.3125 0.09375 0
0.25 0.09375 0
0.28125 0.09375 0
0.25 0.125 0
0.28125 0.125 0
0.28125 0.09375 0
0.3125 0.09375 0
0.28125 0.125 0
0.3125 0.125 0
0.3125 0.0625 0
0.34375 0.0625 0
0.3125 0.09375 0
0.34375 0.09375 0
0.34375 0.0625 0
0.375 0.0625 0
0.34375 0.09375 0
0.375 0.09375 0
0.3125 0.09375 0
0.34375 0.09375 0
0.3125 0.125 0
0.34375 0.125 0
0.34375 0.09375 0
0.375 0.09375 0
0.34375 0.125 0
0.375 0.125 0
0.375 0 0
0.40625 0 0
0.375 0.03125 0
0.40625 0.03125 0
0.40625 0 0
0.4375 0 0
0.40625 0.03125 0
0.4375 0.03125 0
0.375 0.03125 0
0.40625 0.03125 0
0.375 0.0625 0
0.40625 0.0625 0
0.40625 0.03125 0
0.4375 0.03125 0
0.40625 0.0625 0
0.4375 0.0625 0
0.4375 0 0
0.46875 0 0
0.4375 0.03125 0
0.46875 0.03125 0
0.46875 0 0
0.5 0 0
0.46875 0.03125 0
0.5 0.03125 0
0.4375 0.03125 0
0.46875 0.03125 0
0.4375 0.0625 0
0.46875 0.0625 0
0.46875 0.03125 0
0.5 0.03125 0
0.46875 0.0625 0
0.5 0.0625 0
0.375 0.0625 0
0.40625 0.0625 0
0.375 0.09375 0
0.40625 0.09375 0
0.40625 0.0625 0
0.4375 0.0625 0
0.40625 0.09375 0
0.4375 0.09375 0
0.375 0.09375 0
0.40625 0.09375 0
0.375 0.125 0
0.40625 0.125 0
0.40625 0.09375 0
0.4375 0.09375 0
0.40625 0.125 0
0.4375 0.125 0
0.4375 0.0625 0
0.46875 0.0625 0
0.4375 0.09375 0
0.46875 0.09375 0
0.46875 0.0625 0
0.5 0.0625 0
0.46875 0.09375 0
0.5 0.09375 0
0.4375 0.09375 0
0.46875 0.09375 0
0.4375 0.125 0
0.46875 0.125 0
0.46875 0.09375 0
0.5 0.09375 0
0.46875 0.125 0
0.5 0.125 0
0.25 0.125 0
0.28125 0.125 0
0.25 0.15625 0
0.28125 0.15625 0
0.28125 0.125 0
0.3125 0.125 0
0.28125 0.15625 0
0.3125 0.15625 0
0.25 0.15625 0
0.28125 0.15625 0
0.25 0.1875 0
0.28125 0.1875 0
0.28125 0.15625 0
0.3125 0.15625 0
0.28125 0.1875 0
0.3125 0.1875 0
0.3125 0.125 0
0.34375 0.125 0
0.3125 0.15625 0
0.34375 0.15625 0
0.34375 0.125 0
0.375 0.125 0
0.34375 0.15625 0
0.375 0.15625 0
0.3125 0.15625 0
0.34375 0.15625 0
0.3125 0.1875 0
0.34375 0.1875 0
0.34375 0.15625 0
0.375 0.15625 0
0.34375 0.1875 0
0.375 0.1875 0
0.25 0.1875 0
0.28125 0.1875 0
0.25 0.21875 0
0.28125 0.21875 0
0.28125 0.1875 0
0.3125 0.1875 0
0.28125 0.21875 0
0.3125 0.21875 0
0.25 0.21875 0
0.28125 0.21875 0
0.25 0.25 0
0.28125 0.25 0
0.28125 0.21875 0
0.3125 0.21875 0
0.28125 0.25 0
0.3125 0.25 0
0.3125 0.1875 0
0.34375 0.1875 0
0.3125 0.21875 0
0.34375 0.21875 0
0.34375 0.1875 0
0.375 0.1875 0
0.34375 0.21875 0
0.375 0.21875 0
0.3125 0.21875 0
0.34375 0.21875 0
0.3125 0.25 0
0.34375 0.25 0
0.34375 0.21875 0
0.375 0.21875 0
0.34375 0.25 0
0.375 0.25 0
0.375 0.125 0
0.40625 0.125 0
0.375 0.15625 0
0.40625 0.15625 0
0.40625 0.125 0
0.4375 0.125 0
0.40625 0.15625 0
0.4375 0.15625 0
0.375 0.15625 0
0.40625 0.15625 0
0.375 0.1875 0
0.40625 0.1875 0
0.40625 0.15625 0
0.4375 0.15625 0
0.40625 0.1875 0
0.4375 0.1875 0
0.4375 0.125 0
0.46875 0.125 0
0.4375 0.15625 0
0.46875 0.15625 0
0.46875 0.125 0
0.5 0.125 0
0.46875 0.15625 0
0.5 0.15625 0
0.4375 0.15625 0
0.46875 0.15625 0
0.4375 0.1875 0
0.46875 0.1875 0
0.46875 0.15625 0
0.5 0.15625 0
0.46875 0.1875 0
0.5 0.1875 0
0.375 0.1875 0
0.40625 0.1875 0
0.375 0.21875 0
0.40625 0.21875 0
0.40625 0.1875 0
0.4375 0.1875 0
0.40625 0.21875 0
0.4375 0.21875 0
0.375 0.21875 0
0.40625 0.21875 0
0.375 0.25 0
0.40625 0.25 0
0.40625 0.21875 0
0.4375 0.21875 0
0.40625 0.25 0
0.4375 0.25 0
0.4375 0.1875 0
0.46875 0.1875 0
0.4375 0.21875 0
0.46875 0.21875 0
0.46875 0.1875 0
0.5 0.1875 0
0.46875 0.21875 0
0.5 0.21875 0
0.4375 0.21875 0
0.46875 0.21875 0
0.4375 0.25 0
0.46875 0.25 0
0.46875 0.21875 0
0.5 0.21875 0
0.46875 0.25 0
0.5 0.25 0
0 0.25 0
0.03125 0.25 0
0 0.28125 0
0.03125 0.28125 0
0.03125 0.25 0
0.0625 0.25 0
0.03125 0.28125 0
0.0625 0.28125 0
0 0.28125 0
0.03125 0.28125 0
0 0.3125 0
0.03125 0.3125 0
0.03125 0.28125 0
0.0625 0.28125 0
0.03125 0.3125 0
0.0625 0.3125 0
0.0625 0.25 0
0.09375 0.25 0
0.0625 0.28125 0
0.09375 0.28125 0
0.09375 0.25 0
0.125 0.25 0
0.09375 0.28125 0
0.125 0.28125 0
0.0625 0.28125 0
0.09375 0.28125 0
0.0625 0.3125 0
0.09375 0.3125 0
0.09375 0.28125 0
0.125 0.28125 0
0.09375 0.3125 0
0.125 0.3125 0
0 0.3125 0
0.03125 0.3125 0
0 0.34375 0
0.03125 0.34375 0
0.03125 0.3125 0
0.0625 0.3125 0
0.03125 0.34375 0
0.0625 0.34375 0
0 0.34375 0
0.03125 0.34375 0
0 0.375 0
0.03125 0.375 0
0.03125 0.34375 0
0.0625 0.34375 0
0.03125 0.375 0
0.0625 0.375 0
0.0625 0.3125 0
0.09375 0.3125 0
0.0625 0.34375 0
0.09375 0.34375 0
0.09375 0.3125 0
0.125 0.3125 0
0.09375 0.34375 0
0.125 0.34375 0
0.0625 0.34375 0
0.09375 0.34375 0
0.0625 0.375 0
0.09375 0.375 0
0.09375 0.34375 0
0.125 0.34375 0
0.09375 0.375 0
0.125 0.375 0
0.125 0.25 0
0.15625 0.25 0
0.125 0.28125 0
0.15625 0.28125 0
0.15625 0.25 0
0.1875 0.25 0
0.15625 0.28125 0
0.1875 0.28125 0
0.125 0.28125 0
0.15625 0.28125 0
0.125 0.3125 0
0.15625 0.3125 0
0.15625 0.28125 0
0.1875 0.28125 0
0.15625 0.3125 0
0.1875 0.3125 0
0.1875 0.25 0
0.21875 0.25 0
0.1875 0.28125 0
0.21875 0.28125 0
0.21875 0.25 0
0.25 0.25 0
0.21875 0.28125 0
0.25 0.28125 0
0.1875 0.28125 0
0.21875 0.28125 0
0.1875 0.3125 0
0.21875 0.3125 0
0.21875 0.28125 0
0.25 0.28125 0
0.21875 0.3125 0
0.25 0.3125 0
0.125 0.3125 0
0.15625 0.3125 0
0.125 0.34375 0
0.15625 0.34375 0
0.15625 0.3125 0
0.1875 0.3125 0
0.15625 0.34375 0
0.1875 0.34375 0
0.125 0.34375 0
[...]
POINT_DATA 4096
SCALARS u_x double 1
LOOKUP_TABLE default
-1.13874e-05 1.3758e-05 -6.20819e-05 -4.45381e-05 1.3758e-05 2.28553e-05 -4.45381e-05 -0.000355283 -6.20819e-05 -4.45381e-05 -0.000186645 -0.000206544 -4.45381e-05 -0.000355283 -0.000206544 -0.000932608 2.28553e-05 2.09228e-05 -0.000355283 -0.000952534 2.09228e-05 1.2532e-05 -0.000952534 -0.00179953 -0.000355283 -0.000952534 -0.000932608 -0.00209559 -0.000952534 -0.00179953 -0.00209559 -0.00364671 -0.000186645 -0.000206544 -0.000327254 -0.000365151 -0.000206544 -0.000932608 -0.000365151 -0.00150258 -0.000327254 -0.000365151 -0.000436473 -0.000497304 -0.000365151 -0.00150258 -0.000497304 -0.00199209 -0.000932608 -0.00209559 -0.00150258 -0.00318559 -0.00209559 -0.00364671 -0.00318559 -0.00534325 -0.00150258 -0.00318559 -0.00199209 -0.004133 -0.00318559 -0.00534325 -0.004133 -0.00681511 1.2532e-05 1.24656e-06 -0.00179953 -0.002818 1.24656e-06 -1.09874e-05 -0.002818 -0.00393433 -0.00179953 -0.002818 -0.00364671 -0.00546831 -0.002818 -0.00393433 -0.00546831 -0.00744865 -1.09874e-05 -2.31891e-05 -0.00393433 -0.00508662 -2.31891e-05 -3.48696e-05 -0.00508662 -0.00622641 -0.00393433 -0.00508662 -0.00744865 -0.00948791 -0.00508662 -0.00622641 -0.00948791 -0.0115044 -0.00364671 -0.00546831 -0.00534325 -0.0078242 -0.00546831 -0.00744865 -0.0078242 -0.0104937 -0.00534325 -0.0078242 -0.00681511 -0.00985206 -0.0078242 -0.0104937 -0.00985206 -0.0130893 -0.00744865 -0.00948791 -0.0104937 -0.0132289 -0.00948791 -0.0115044 -0.0132289 -0.015927 -0.0104937 -0.0132289 -0.0130893 -0.0163878 -0.0132289 -0.015927 -0.0163878 -0.0196311 -0.000436473 -0.000497304 -0.000488921 -0.000607132 -0.000497304 -0.00199209 -0.000607132 -0.00239516 -0.000488921 -0.000607132 -0.000471199 -0.000704452 -0.000607132 -0.00239516 -0.000704452 -0.00273027 -0.00199209 -0.004133 -0.00239516 -0.00493129 -0.004133 -0.00681511 -0.00493129 -0.00806794 -0.00239516 -0.00493129 -0.00273027 -0.00561143 -0.00493129 -0.00806794 -0.00561143 -0.00914881 -0.000471199 -0.000704452 -0.000375544 -0.000798876 -0.000704452 -0.00273027 -0.000798876 -0.0030217 -0.000375544 -0.000798876 -0.000196701 -0.000898694 -0.000798876 -0.0030217 -0.000898694 -0.00329291 -0.00273027 -0.00561143 -0.0030217 -0.00621634 -0.00561143 -0.00914881 -0.00621634 -0.0101203 -0.0030217 -0.00621634 -0.00329291 -0.00678932 -0.00621634 -0.0101203 -0.00678932 -0.0110464 -0.00681511 -0.00985206 -0.00806794 -0.0115846 -0.00985206 -0.0130893 -0.0115846 -0.0153061 -0.00806794 -0.0115846 -0.00914881 -0.0130915 -0.0115846 -0.0153061 -0.0130915 -0.017243 -0.0130893 -0.0163878 -0.0153061 -0.0190795 -0.0163878 -0.0196311 -0.0190795 -0.0227776 -0.0153061 -0.0190795 -0.017243 -0.0214363 -0.0190795 -0.0227776 -0.0214363 -0.0255352 -0.00914881 -0.0130915 -0.0101203 -0.0144577 -0.0130915 -0.017243 -0.0144577 -0.0190096 -0.0101203 -0.0144577 -0.0110464 -0.0157681 -0.0144577 -0.0190096 -0.0157681 -0.0207126 -0.017243 -0.0214363 -0.0190096 -0.0235952 -0.0214363 -0.0255352 -0.0235952 -0.0280691 -0.0190096 -0.0235952 -0.0207126 -0.0256848 -0.0235952 -0.0280691 -0.0256848 -0.0305306 -3.48696e-05 -4.58049e-05 -0.00622641 -0.00731673 -4.58049e-05 -5.58915e-05 -0.00731673 -0.00832948 -0.00622641 -0.00731673 -0.0115044 -0.0134334 -0.00731673 -0.00832948 -0.0134334 -0.0152244 -5.58915e-05 -6.50646e-05 -0.00832948 -0.00924269 -6.50646e-05 -7.32522e-05 -0.00924269 -0.0100385 -0.00832948 -0.00924269 -0.0152244 -0.0168374 -0.00924269 -0.0100385 -0.0168374 -0.0182397 -0.0115044 -0.0134334 -0.015927 -0.0185047 -0.0134334 -0.0152244 -0.0185047 -0.0208953 -0.015927 -0.0185047 -0.0196311 -0.0227233 -0.0185047 -0.0208953 -0.0227233 -0.0255871 -0.0152244 -0.0168374 -0.0208953 -0.0230453 -0.0168374 -0.0182397 -0.0230453 -0.024911 -0.0208953 -0.0230453 -0.0255871 -0.0281599 -0.0230453 -0.024911 -0.0281599 -0.0303899 -7.32522e-05 -8.03552e-05 -0.0100385 -0.0107016 -8.03552e-05 -8.62428e-05 -0.0107016 -0.0112184 -0.0100385 -0.0107016 -0.0182397 -0.0194037 -0.0107016 -0.0112184 -0.0194037 -0.0203056 -8.62428e-05 -9.0754e-05 -0.0112184 -0.0115767 -9.0754e-05 -9.37077e-05 -0.0115767 -0.0117656 -0.0112184 -0.0115767 -0.0203056 -0.0209241 -0.0115767 -0.0117656 -0.0209241 -0.0212411 -0.0182397 -0.0194037 -0.024911 -0.0264555 -0.0194037 -0.0203056 -0.0264555 -0.0276469 -0.024911 -0.0264555 -0.0303899 -0.0322334 -0.0264555 -0.0276469 -0.0322334 -0.033653 -0.0203056 -0.0209241 -0.0276469 -0.0284579 -0.0209241 -0.0212411 -0.0284579 -0.028865 -0.0276469 -0.0284579 -0.033653 -0.0346161 -0.0284579 -0.028865 -0.0346161 -0.0350957 -0.0196311 -0.0227233 -0.0227776 -0.0262965 -0.0227233 -0.0255871 -0.0262965 -0.0295516 -0.0227776 -0.0262965 -0.0255352 -0.0294292 -0.0262965 -0.0295516 -0.0294292 -0.0330291 -0.0255871 -0.0281599 -0.0295516 -0.0324742 -0.0281599 -0.0303899 -0.0324742 -0.0350071 -0.0295516 -0.0324742 -0.0330291 -0.0362619 -0.0324742 -0.0350071 -0.0362619 -0.0390669 -0.0255352 -0.0294292 -0.0280691 -0.0323155 -0.0294292 -0.0330291 -0.0323155 -0.0362414 -0.0280691 -0.0323155 -0.0305306 -0.0351288 -0.0323155 -0.0362414 -0.0351288 -0.0393836 -0.0330291 -0.0362619 -0.0362414 -0.0397713 -0.0362619 -0.0390669 -0.0397713 -0.042842 -0.0362414 -0.0397713 -0.0393836 -0.0432177 -0.0397713 -0.042842 -0.0432177 -0.0465663 -0.0303899 -0.0322334 -0.0350071 -0.0371019 -0.0322334 -0.033653 -0.0371019 -0.0387165 -0.0350071 -0.0371019 -0.0390669 -0.0413922 -0.0371019 -0.0387165 -0.0413922 -0.0431923 -0.033653 -0.0346161 -0.0387165 -0.0398148 -0.0346161 -0.0350957 -0.0398148 -0.0403656 -0.0387165 -0.0398148 -0.0431923 -0.044427 -0.0398148 -0.0403656 -0.044427 -0.0450615 -0.0390669 -0.0413922 -0.042842 -0.0453988 -0.0413922 -0.0431923 -0.0453988 -0.0473933 -0.042842 -0.0453988 -0.0465663 -0.0493728 -0.0453988 -0.0473933 -0.0493728 -0.0515856 -0.0431923 -0.044427 -0.0473933 -0.0487813 -0.044427 -0.0450615 -0.0487813 -0.0495234 -0.0473933 -0.0487813 -0.0515856 -0.0531566 -0.0487813 -0.0495234 -0.0531566 -0.0540406 -0.000196701 -0.000898694 6.98965e-05 -0.00101077 -0.000898694 -0.00329291 -0.00101077 -0.00356421 6.98965e-05 -0.00101077 0.000429214 -0.00114077 -0.00101077 -0.00356421 -0.00114077 -0.00385239 -0.00329291 -0.00678932 -0.00356421 -0.00736908 -0.00678932 -0.0110464 -0.00736908 -0.0119848 -0.00356421 -0.00736908 -0.00385239 -0.00798833 -0.00736908 -0.0119848 -0.00798833 -0.0129853 0.000429214 -0.00114077 0.000887216 -0.00129352 -0.00114077 -0.00385239 -0.00129352 -0.0041712 0.000887216 -0.00129352 0.00145125 -0.00147341 -0.00129352 -0.0041712 -0.00147341 -0.00453235 -0.00385239 -0.00798833 -0.0041712 -0.00867438 -0.00798833 -0.0129853 -0.00867438 -0.0140893 -0.0041712 -0.00867438 -0.00453235 -0.00945065 -0.00867438 -0.0140893 -0.00945065 -0.0153324 -0.0110464 -0.0157681 -0.0119848 -0.0170996 -0.0157681 -0.0207126 -0.0170996 -0.0224475 -0.0119848 -0.0170996 -0.0129853 -0.0185184 -0.0170996 -0.0224475 -0.0185184 -0.024296 -0.0207126 -0.0256848 -0.0224475 -0.0278191 -0.0256848 -0.0305306 -0.0278191 -0.0330509 -0.0224475 -0.0278191 -0.024296 -0.0300936 -0.0278191 -0.0330509 -0.0300936 -0.0357386 -0.0129853 -0.0185184 -0.0140893 -0.0200797 -0.0185184 -0.024296 -0.0200797 -0.0263254 -0.0140893 -0.0200797 -0.0153324 -0.0218302 -0.0200797 -0.0263254 -0.0218302 -0.0285918 -0.024296 -0.0300936 -0.0263254 -0.0325863 -0.0300936 -0.0357386 -0.0325863 -0.0386807 -0.0263254 -0.0325863 -0.0285918 -0.0353606 -0.0325863 -0.0386807 -0.0353606 -0.0419456 0.00145125 -0.00147341 0.00213036 -0.00168485 -0.00147341 -0.00453235 -0.00168485 -0.00494675 0.00213036 -0.00168485 0.00293553 -0.00193275 -0.00168485 -0.00494675 -0.00193275 -0.00542583 -0.00453235 -0.00945065 -0.00494675 -0.0103388 -0.00945065 -0.0153324 -0.0103388 -0.0167468 -0.00494675 -0.0103388 -0.00542583 -0.0113614 -0.0103388 -0.0167468 -0.0113614 -0.018365 0.00293553 -0.00193275 0.00388 -0.00222303 -0.00193275 -0.00542583 -0.00222303 -0.00598309 0.00388 -0.00222303 0.00497971 -0.00256323 -0.00222303 -0.00598309 -0.00256323 -0.00663561 -0.00542583 -0.0113614 -0.00598309 -0.0125438 -0.0113614 -0.018365 -0.0125438 -0.0202227 -0.00598309 -0.0125438 -0.00663561 -0.0139177 -0.0125438 -0.0202227 -0.0139177 -0.0223623 -0.0153324 -0.0218302 -0.0167468 -0.0238113 -0.0218302 -0.0285918 -0.0238113 -0.0311434 -0.0167468 -0.0238113 -0.018365 -0.0260632 -0.0238113 -0.0311434 -0.0260632 -0.0340248 -0.0285918 -0.0353606 -0.0311434 -0.0384686 -0.0353606 -0.0419456 -0.0384686 -0.0455872 -0.0311434 -0.0384686 -0.0340248 -0.0419559 -0.0384686 -0.0455872 -0.0419559 -0.0496486 -0.018365 -0.0260632 -0.0202227 -0.0286283 -0.0260632 -0.0340248 -0.0286283 -0.0372803 -0.0202227 -0.0286283 -0.0223623 -0.0315544 -0.0286283 -0.0372803 -0.0315544 -0.0409567 -0.0340248 -0.0419559 -0.0372803 -0.0458643 -0.0419559 -0.0496486 -0.0458643 -0.054165 -0.0372803 -0.0458643 -0.0409567 -0.0502329 -0.0458643 -0.054165 -0.0502329 -0.0591626 -0.0305306 -0.0351288 -0.0330509 -0.038017 -0.0351288 -0.0393836 -0.038017 -0.0426194 -0.0330509 -0.038017 -0.0357386 -0.0411007 -0.038017 -0.0426194 -0.0411007 -0.0460803 -0.0393836 -0.0432177 -0.0426194 -0.0467797 -0.0432177 -0.0465663 -0.0467797 -0.0504325 -0.0426194 -0.0467797 -0.0460803 -0.0505991 -0.0467797 -0.0504325 -0.0505991 -0.0545918 -0.0357386 -0.0411007 -0.0386807 -0.0444743 -0.0411007 -0.0460803 -0.0444743 -0.0498673 -0.0386807 -0.0444743 -0.0419456 -0.0482098 -0.0444743 -0.0498673 -0.0482098 -0.0540549 -0.0460803 -0.0505991 -0.0498673 -0.0547828 -0.0505991 -0.0545918 -0.0547828 -0.0591573 -0.0498673 -0.0547828 -0.0540549 -0.0594073 -0.0547828 -0.0591573 -0.0594073 -0.0642075 -0.0465663 -0.0493728 -0.0504325 -0.0535195 -0.0493728 -0.0515856 -0.0535195 -0.0559867 -0.0504325 -0.0535195 -0.0545918 -0.0579998 -0.0535195 -0.0559867 -0.0579998 -0.0607669 -0.0515856 -0.0531566 -0.0559867 -0.0577813 -0.0531566 -0.0540406 -0.0577813 -0.0588517 -0.0559867 -0.0577813 -0.0607669 -0.0628358 -0.0577813 -0.0588517 -0.0628358 -0.0641475 -0.0545918 -0.0579998 -0.0591573 -0.0629331 -0.0579998 -0.0607669 -0.0629331 -0.0660529 -0.0591573 -0.0629331 -0.0642075 -0.0684009 -0.0629331 -0.0660529 -0.0684009 -0.0719313 -0.0607669 -0.0628358 -0.0660529 -0.0684557 -0.0628358 -0.0641475 -0.0684557 -0.0700747 -0.0660529 -0.0684557 -0.0719313 -0.0747352 -0.0684557 -0.0700747 -0.0747352 -0.076739 -0.0419456 -0.0482098 -0.0455872 -0.0523608 -0.0482098 -0.0540549 -0.0523608 -0.0586948 -0.0455872 -0.0523608 -0.0496486 -0.0569656 -0.0523608 -0.0586948 -0.0569656 -0.0638187 -0.0540549 -0.0594073 -0.0586948 -0.0645218 -0.0594073 -0.0642075 -0.0645218 -0.0697895 -0.0586948 -0.0645218 -0.0638187 -0.0701505 -0.0645218 -0.0697895 -0.0701505 -0.0759198 -0.0496486 -0.0569656 -0.054165 -0.0620489 -0.0569656 -0.0638187 -0.0620489 -0.0694386 -0.054165 -0.0620489 -0.0591626 -0.0676199 -0.0620489 -0.0694386 -0.0676199 -0.0755427 -0.0638187 -0.0701505 -0.0694386 -0.0762911 -0.0701505 -0.0759198 -0.0762911 -0.0825815 -0.0694386 -0.0762911 -0.0755427 -0.0829083 -0.0762911 -0.0825815 -0.0829083 -0.089714 -0.0642075 -0.0684009 -0.0697895 -0.0744496 -0.0684009 -0.0719313 -0.0744496 -0.07845 -0.0697895 -0.0744496 -0.0759198 -0.0810893 -0.0744496 -0.07845 -0.0810893 -0.0856155 -0.0719313 -0.0747352 -0.07845 -0.0817278 -0.0747352 -0.076739 -0.0817278 -0.0842044 -0.07845 -0.0817278 -0.0856155 -0.0894407 -0.0817278 -0.0842044 -0.0894407 -0.0924851 -0.0759198 -0.0810893 -0.0825815 -0.0882888 -0.0810893 -0.0856155 -0.0882888 -0.0933845 -0.0825815 -0.0882888 -0.089714 -0.0959618 -0.0882888 -0.0933845 -0.0959618 -0.101646 -0.0856155 -0.0894407 -0.0933845 -0.0978223 -0.0894407 -0.0924851 -0.0978223 -0.101528 -0.0933845 -0.0978223 -0.101646 -0.106739 -0.0978223 -0.101528 -0.106739 -0.111183 -9.37077e-05 -9.49192e-05 -0.0117656 -0.0117761 -9.49192e-05 -9.42131e-05 -0.0117761 -0.0116013 -0.0117656 -0.0117761 -0.0212411 -0.021242 -0.0117761 -0.0116013 -0.021242 -0.0209162 -9.42131e-05 -9.14343e-05 -0.0116013 -0.0112377 -9.14343e-05 -8.64657e-05 -0.0112377 -0.0106857 -0.0116013 -0.0112377 -0.0209162 -0.0202591 -0.0112377 -0.0106857 -0.0202591 -0.019273 -0.0212411 -0.021242 -0.028865 -0.0288499 -0.021242 -0.0209162 -0.0288499 -0.0284 -0.028865 -0.0288499 -0.0350957 -0.0350701 -0.0288499 -0.0284 -0.0350701 -0.0345248 -0.0209162 -0.0202591 -0.0284 -0.0275102 -0.0202591 -0.019273 -0.0275102 -0.0261851 -0.0284 -0.0275102 -0.0345248 -0.0334541 -0.0275102 -0.0261851 -0.0334541 -0.0318637 -8.64657e-05 -7.92489e-05 -0.0106857 -0.00995104 -7.92489e-05 -6.9806e-05 -0.00995104 -0.009046 -0.0106857 -0.00995104 -0.019273 -0.0179698 -0.00995104 -0.009046 -0.0179698 -0.0163723 -6.9806e-05 -5.82679e-05 -0.009046 -0.00799094 -5.82679e-05 -4.49082e-05 -0.00799094 -0.00681581 -0.009046 -0.00799094 -0.0163723 -0.0145171 -0.00799094 -0.00681581 -0.0145171 -0.0124569 -0.019273 -0.0179698 -0.0261851 -0.0244413 -0.0179698 -0.0163723 -0.0244413 -0.0223101 -0.0261851 -0.0244413 -0.0318637 -0.0297735 -0.0244413 -0.0223101 -0.0297735 -0.0272204 -0.0163723 -0.0145171 -0.0223101 -0.0198404 -0.0145171 -0.0124569 -0.0198404 -0.0171012 -0.0223101 -0.0198404 -0.0272204 -0.0242623 -0.0198404 -0.0171012 -0.0242623 -0.0209801 -0.0350957 -0.0350701 -0.0403656 -0.0403442 -0.0350701 -0.0345248 -0.0403442 -0.0397333 -0.0403656 -0.0403442 -0.0450615 -0.0450667 -0.0403442 -0.0397333 -0.0450667 -0.0444215 -0.0345248 -0.0334541 -0.0397333 -0.0385255 -0.0334541 -0.0318637 -0.0385255 -0.0367258 -0.0397333 -0.0385255 -0.0444215 -0.0431146 -0.0385255 -0.0367258 -0.0431146 -0.0411484 -0.0450615 -0.0450667 -0.0495234 -0.0495851 -0.0450667 -0.0444215 -0.0495851 -0.0489392 -0.0495234 -0.0495851 -0.0540406 -0.0541962 -0.0495851 -0.0489392 -0.0541962 -0.0535878 -0.0444215 -0.0431146 -0.0489392 -0.0475685 -0.0431146 -0.0411484 -0.0475685 -0.0454699 -0.0489392 -0.0475685 -0.0535878 -0.0521894 -0.0475685 -0.0454699 -0.0521894 -0.0499891 -0.0318637 -0.0297735 -0.0367258 -0.0343552 -0.0297735 -0.0272204 -0.0343552 -0.0314543 -0.0367258 -0.0343552 -0.0411484 -0.0385426 -0.0343552 -0.0314543 -0.0385426 -0.035339 -0.0272204 -0.0242623 -0.0314543 -0.0280868 -0.0242623 -0.0209801 -0.0280868 -0.0243427 -0.0314543 -0.0280868 -0.035339 -0.0316051 -0.0280868 -0.0243427 -0.0316051 -0.0274387 -0.0411484 -0.0385426 -0.0454699 -0.0426592 -0.0385426 -0.035339 -0.0426592 -0.0391766 -0.0454699 -0.0426592 -0.0499891 -0.0469952 -0.0426592 -0.0391766 -0.0469952 -0.0432438 -0.035339 -0.0316051 -0.0391766 -0.0350922 -0.0316051 -0.0274387 -0.0350922 -0.0305107 -0.0391766 -0.0350922 -0.0432438 -0.0388051 -0.0350922 -0.0305107 -0.0388051 -0.0337907 -4.49082e-05 -3.01651e-05 -0.00681581 -0.00556173 -3.01651e-05 -1.4772e-05 -0.00556173 -0.00428166 -0.00681581 -0.00556173 -0.0124569 -0.0102625 -0.00556173 -0.00428166 -0.0102625 -0.0080235 -1.4772e-05 5.45518e-07 -0.00428166 -0.00304323 5.45518e-07 1.30374e-05 -0.00304323 -0.00191509 -0.00428166 -0.00304323 -0.0080235 -0.00585015 -0.00304323 -0.00191509 -0.00585015 -0.00385596 -0.0124569 -0.0102625 -0.0171012 -0.0141841 -0.0102625 -0.0080235 -0.0141841 -0.0112032 -0.0171012 -0.0141841 -0.0209801 -0.0174802 -0.0141841 -0.0112032 -0.0174802 -0.0138944 -0.0080235 -0.00585015 -0.0112032 -0.00829586 -0.00585015 -0.00385596 -0.00829586 -0.00560413 -0.0112032 -0.00829586 -0.0138944 -0.0103797 -0.00829586 -0.00560413 -0.0103797 -0.00710008 1.30374e-05 2.22883e-05 -0.00191509 -0.00102883 2.22883e-05 5.30747e-05 -0.00102883 -0.000186737 -0.00191509 -0.00102883 -0.00385596 -0.00222407 -0.00102883 -0.000186737 -0.00222407 -0.000765397 5.30747e-05 -9.87818e-06 -0.000186737 -0.000875426 -9.87818e-06 0.00723006 -0.000875426 0.00642218 -0.000186737 -0.000875426 -0.000765397 -0.00108201 -0.000875426 0.00642218 -0.00108201 0.00666599 -0.00385596 -0.00222407 -0.00560413 -0.00333896 -0.00222407 -0.000765397 -0.00333896 -0.00134158 -0.00560413 -0.00333896 -0.00710008 -0.00428984 -0.00333896 -0.00134158 -0.00428984 -0.00182751 -0.000765397 -0.00108201 -0.00134158 -0.00125919 -0.00108201 0.00666599 -0.00125919 0.00649331 -0.00134158 -0.00125919 -0.00182751 -0.00138559 -0.00125919 0.00649331 -0.00138559 0.00635898 -0.0209801 -0.0174802 -0.0243427 -0.0203406 -0.0174802 -0.0138944 -0.0203406 -0.0162274 -0.0243427 -0.0203406 -0.0274387 -0.0229699 -0.0203406 -0.0162274 -0.0229699 -0.0183612 -0.0138944 -0.0103797 -0.0162274 -0.0121781 -0.0103797 -0.00710008 -0.0121781 -0.00837801 -0.0162274 -0.0121781 -0.0183612 -0.0138075 -0.0121781 -0.00837801 -0.0138075 -0.00951843 -0.0274387 -0.0229699 -0.0305107 -0.0255746 -0.0229699 -0.0183612 -0.0255746 -0.0204646 -0.0305107 -0.0255746 -0.0337907 -0.028357 -0.0255746 -0.0204646 -0.028357 -0.0227068 -0.0183612 -0.0138075 -0.0204646 -0.0153996 -0.0138075 -0.00951843 -0.0153996 -0.0106178 -0.0204646 -0.0153996 -0.0227068 -0.0170881 -0.0153996 -0.0106178 -0.0170881 -0.0117746 -0.00710008 -0.00428984 -0.00837801 -0.005087 -0.00428984 -0.00182751 -0.005087 -0.00222087 -0.00837801 -0.005087 -0.00951843 -0.00578302 -0.005087 -0.00222087 -0.00578302 -0.00255301 -0.00182751 -0.00138559 -0.00222087 -0.00148401 -0.00138559 0.00635898 -0.00148401 0.00627807 -0.00222087 -0.00148401 -0.00255301 -0.00156968 -0.00148401 0.00627807 -0.00156968 0.00624948 -0.00951843 -0.00578302 -0.0106178 -0.00644226 -0.00578302 -0.00255301 -0.00644226 -0.00285903 -0.0106178 -0.00644226 -0.0117746 -0.00712914 -0.00644226 -0.00285903 -0.00712914 -0.00317251 -0.00255301 -0.00156968 -0.00285903 -0.00165373 -0.00156968 0.00624948 -0.00165373 0.00627636 -0.00285903 -0.00165373 -0.00317251 -0.00174629 -0.00165373 0.00627636 -0.00174629 0.00635728 -0.0540406 -0.0541962 -0.0588517 -0.0591476 -0.0541962 -0.0535878 -0.0591476 -0.0586226 -0.0588517 -0.0591476 -0.0641475 -0.0646412 -0.0591476 -0.0586226 -0.0646412 -0.0642565 -0.0535878 -0.0521894 -0.0586226 -0.057238 -0.0521894 -0.0499891 -0.057238 -0.054969 -0.0586226 -0.057238 -0.0642565 -0.0629381 -0.057238 -0.054969 -0.0629381 -0.0606432 -0.0641475 -0.0646412 -0.0700747 -0.070837 -0.0646412 -0.0642565 -0.070837 -0.0706655 -0.0700747 -0.070837 -0.076739 -0.0778569 -0.070837 -0.0706655 -0.0778569 -0.0779922 -0.0642565 -0.0629381 -0.0706655 -0.0694836 -0.0629381 -0.0606432 -0.0694836 -0.0672236 -0.0706655 -0.0694836 -0.0779922 -0.0770418 -0.0694836 -0.0672236 -0.0770418 -0.0749058 -0.0499891 -0.0469952 -0.054969 -0.0518123 -0.0469952 -0.0432438 -0.0518123 -0.0477956 -0.054969 -0.0518123 -0.0606432 -0.0573508 -0.0518123 -0.0477956 -0.0573508 -0.0530745 -0.0432438 -0.0388051 -0.0477956 -0.0429868 -0.0388051 -0.0337907 -0.0429868 -0.0375029 -0.0477956 -0.0429868 -0.0530745 -0.047875 -0.0429868 -0.0375029 -0.047875 -0.0418729 -0.0606432 -0.0573508 -0.0672236 -0.0638392 -0.0573508 -0.0530745 -0.0638392 -0.0593215 -0.0672236 -0.0638392 -0.0749058 -0.0715022 -0.0638392 -0.0593215 -0.0715022 -0.0667871 -0.0530745 -0.047875 -0.0593215 -0.0537164 -0.047875 -0.0418729 -0.0537164 -0.0471427 -0.0593215 -0.0537164 -0.0667871 -0.0607798 -0.0537164 -0.0471427 -0.0607798 -0.0535876 -0.076739 -0.0778569 -0.0842044 -0.0857818 -0.0778569 -0.0779922 -0.0857818 -0.086342 -0.0842044 -0.0857818 -0.0924851 -0.0946413 -0.0857818 -0.086342 -0.0946413 -0.0957707 -0.0779922 -0.0770418 -0.086342 -0.0857509 -0.0770418 -0.0749058 -0.0857509 -0.0838674 -0.086342 -0.0857509 -0.0957707 -0.0957042 -0.0857509 -0.0838674 -0.0957042 -0.0942509 -0.0924851 -0.0946413 -0.101528 -0.104391 -0.0946413 -0.0957707 -0.104391 -0.106254 -0.101528 -0.104391 -0.111183 -0.114871 -0.104391 -0.106254 -0.114871 -0.117639 -0.0957707 -0.0957042 -0.106254 -0.106915 -0.0957042 -0.0942509 -0.106915 -0.106124 -0.106254 -0.106915 -0.117639 -0.119254 -0.106915 -0.106124 -0.119254 -0.119407 -0.0749058 -0.0715022 -0.0838674 -0.0805605 -0.0715022 -0.0667871 -0.0805605 -0.0757353 -0.0838674 -0.0805605 -0.0942509 -0.0912161 -0.0805605 -0.0757353 -0.0912161 -0.0864316 -0.0667871 -0.0607798 -0.0757353 -0.0693656 -0.0607798 -0.0535876 -0.0693656 -0.0615305 -0.0757353 -0.0693656 -0.0864316 -0.0797994 -0.0693656 -0.0615305 -0.0797994 -0.0713429 -0.0942509 -0.0912161 -0.106124 -0.103609 -0.0912161 -0.0864316 -0.103609 -0.0991011 -0.106124 -0.103609 -0.119407 -0.117734 -0.103609 -0.0991011 -0.117734 -0.11384 -0.0864316 -0.07