# vtk DataFile Version 3.0
#This file was generated by the deal.II library on 2026/1/5 at 14:19:34
ASCII
DATASET UNSTRUCTURED_GRID

POINTS 4096 double
0 0 0
0.03125 0 0
0 0.03125 0
0.03125 0.03125 0
0.03125 0 0
0.0625 0 0
0.03125 0.03125 0
0.0625 0.03125 0
0 0.03125 0
0.03125 0.03125 0
0 0.0625 0
0.03125 0.0625 0
0.03125 0.03125 0
0.0625 0.03125 0
0.03125 0.0625 0
0.0625 0.0625 0
0.0625 0 0
0.09375 0 0
0.0625 0.03125 0
0.09375 0.03125 0
0.09375 0 0
0.125 0 0
0.09375 0.03125 0
0.125 0.03125 0
0.0625 0.03125 0
0.09375 0.03125 0
0.0625 0.0625 0
0.09375 0.0625 0
0.09375 0.03125 0
0.125 0.03125 0
0.09375 0.0625 0
0.125 0.0625 0
0 0.0625 0
0.03125 0.0625 0
0 0.09375 0
0.03125 0.09375 0
0.03125 0.0625 0
0.0625 0.0625 0
0.03125 0.09375 0
0.0625 0.09375 0
0 0.09375 0
0.03125 0.09375 0
0 0.125 0
0.03125 0.125 0
0.03125 0.09375 0
0.0625 0.09375 0
0.03125 0.125 0
0.0625 0.125 0
0.0625 0.0625 0
0.09375 0.0625 0
0.0625 0.09375 0
0.09375 0.09375 0
0.09375 0.0625 0
0.125 0.0625 0
0.09375 0.09375 0
0.125 0.09375 0
0.0625 0.09375 0
0.09375 0.09375 0
0.0625 0.125 0
0.09375 0.125 0
0.09375 0.09375 0
0.125 0.09375 0
0.09375 0.125 0
0.125 0.125 0
0.125 0 0
0.15625 0 0
0.125 0.03125 0
0.15625 0.03125 0
0.15625 0 0
0.1875 0 0
0.15625 0.03125 0
0.1875 0.03125 0
0.125 0.03125 0
0.15625 0.03125 0
0.125 0.0625 0
0.15625 0.0625 0
0.15625 0.03125 0
0.1875 0.03125 0
0.15625 0.0625 0
0.1875 0.0625 0
0.1875 0 0
0.21875 0 0
0.1875 0.03125 0
0.21875 0.03125 0
0.21875 0 0
0.25 0 0
0.21875 0.03125 0
0.25 0.03125 0
0.1875 0.03125 0
0.21875 0.03125 0
0.1875 0.0625 0
0.21875 0.0625 0
0.21875 0.03125 0
0.25 0.03125 0
0.21875 0.0625 0
0.25 0.0625 0
0.125 0.0625 0
0.15625 0.0625 0
0.125 0.09375 0
0.15625 0.09375 0
0.15625 0.0625 0
0.1875 0.0625 0
0.15625 0.09375 0
0.1875 0.09375 0
0.125 0.09375 0
0.15625 0.09375 0
0.125 0.125 0
0.15625 0.125 0
0.15625 0.09375 0
0.1875 0.09375 0
0.15625 0.125 0
0.1875 0.125 0
0.1875 0.0625 0
0.21875 0.0625 0
0.1875 0.09375 0
0.21875 0.09375 0
0.21875 0.0625 0
0.25 0.0625 0
0.21875 0.09375 0
0.25 0.09375 0
0.1875 0.09375 0
0.21875 0.09375 0
0.1875 0.125 0
0.21875 0.125 0
0.21875 0.09375 0
0.25 0.09375 0
0.21875 0.125 0
0.25 0.125 0
0 0.125 0
0.03125 0.125 0
0 0.15625 0
0.03125 0.15625 0
0.03125 0.125 0
0.0625 0.125 0
0.03125 0.15625 0
0.0625 0.15625 0
0 0.15625 0
0.03125 0.15625 0
0 0.1875 0
0.03125 0.1875 0
0.03125 0.15625 0
0.0625 0.15625 0
0.03125 0.1875 0
0.0625 0.1875 0
0.0625 0.125 0
0.09375 0.125 0
0.0625 0.15625 0
0.09375 0.15625 0
0.09375 0.125 0
0.125 0.125 0
0.09375 0.15625 0
0.125 0.15625 0
0.0625 0.15625 0
0.09375 0.15625 0
0.0625 0.1875 0
0.09375 0.1875 0
0.09375 0.15625 0
0.125 0.15625 0
0.09375 0.1875 0
0.125 0.1875 0
0 0.1875 0
0.03125 0.1875 0
0 0.21875 0
0.03125 0.21875 0
0.03125 0.1875 0
0.0625 0.1875 0
0.03125 0.21875 0
0.0625 0.21875 0
0 0.21875 0
0.03125 0.21875 0
0 0.25 0
0.03125 0.25 0
0.03125 0.21875 0
0.0625 0.21875 0
0.03125 0.25 0
0.0625 0.25 0
0.0625 0.1875 0
0.09375 0.1875 0
0.0625 0.21875 0
0.09375 0.21875 0
0.09375 0.1875 0
0.125 0.1875 0
0.09375 0.21875 0
0.125 0.21875 0
0.0625 0.21875 0
0.09375 0.21875 0
0.0625 0.25 0
0.09375 0.25 0
0.09375 0.21875 0
0.125 0.21875 0
0.09375 0.25 0
0.125 0.25 0
0.125 0.125 0
0.15625 0.125 0
0.125 0.15625 0
0.15625 0.15625 0
0.15625 0.125 0
0.1875 0.125 0
0.15625 0.15625 0
0.1875 0.15625 0
0.125 0.15625 0
0.15625 0.15625 0
0.125 0.1875 0
0.15625 0.1875 0
0.15625 0.15625 0
0.1875 0.15625 0
0.15625 0.1875 0
0.1875 0.1875 0
0.1875 0.125 0
0.21875 0.125 0
0.1875 0.15625 0
0.21875 0.15625 0
0.21875 0.125 0
0.25 0.125 0
0.21875 0.15625 0
0.25 0.15625 0
0.1875 0.15625 0
0.21875 0.15625 0
0.1875 0.1875 0
0.21875 0.1875 0
0.21875 0.15625 0
0.25 0.15625 0
0.21875 0.1875 0
0.25 0.1875 0
0.125 0.1875 0
0.15625 0.1875 0
0.125 0.21875 0
0.15625 0.21875 0
0.15625 0.1875 0
0.1875 0.1875 0
0.15625 0.21875 0
0.1875 0.21875 0
0.125 0.21875 0
0.15625 0.21875 0
0.125 0.25 0
0.15625 0.25 0
0.15625 0.21875 0
0.1875 0.21875 0
0.15625 0.25 0
0.1875 0.25 0
0.1875 0.1875 0
0.21875 0.1875 0
0.1875 0.21875 0
0.21875 0.21875 0
0.21875 0.1875 0
0.25 0.1875 0
0.21875 0.21875 0
0.25 0.21875 0
0.1875 0.21875 0
0.21875 0.21875 0
0.1875 0.25 0
0.21875 0.25 0
0.21875 0.21875 0
0.25 0.21875 0
0.21875 0.25 0
0.25 0.25 0
0.25 0 0
0.28125 0 0
0.25 0.03125 0
0.28125 0.03125 0
0.28125 0 0
0.3125 0 0
0.28125 0.03125 0
0.3125 0.03125 0
0.25 0.03125 0
0.28125 0.03125 0
0.25 0.0625 0
0.28125 0.0625 0
0.28125 0.03125 0
0.3125 0.03125 0
0.28125 0.0625 0
0.3125 0.0625 0
0.3125 0 0
0.34375 0 0
0.3125 0.03125 0
0.34375 0.03125 0
0.34375 0 0
0.375 0 0
0.34375 0.03125 0
0.375 0.03125 0
0.3125 0.03125 0
0.34375 0.03125 0
0.3125 0.0625 0
0.34375 0.0625 0
0.34375 0.03125 0
0.375 0.03125 0
0.34375 0.0625 0
0.375 0.0625 0
0.25 0.0625 0
0.28125 0.0625 0
0.25 0.09375 0
0.28125 0.09375 0
0.28125 0.0625 0
0.3125 0.0625 0
0.28125 0.09375 0
0.3125 0.09375 0
0.25 0.09375 0
0.28125 0.09375 0
0.25 0.125 0
0.28125 0.125 0
0.28125 0.09375 0
0.3125 0.09375 0
0.28125 0.125 0
0.3125 0.125 0
0.3125 0.0625 0
0.34375 0.0625 0
0.3125 0.09375 0
0.34375 0.09375 0
0.34375 0.0625 0
0.375 0.0625 0
0.34375 0.09375 0
0.375 0.09375 0
0.3125 0.09375 0
0.34375 0.09375 0
0.3125 0.125 0
0.34375 0.125 0
0.34375 0.09375 0
0.375 0.09375 0
0.34375 0.125 0
0.375 0.125 0
0.375 0 0
0.40625 0 0
0.375 0.03125 0
0.40625 0.03125 0
0.40625 0 0
0.4375 0 0
0.40625 0.03125 0
0.4375 0.03125 0
0.375 0.03125 0
0.40625 0.03125 0
0.375 0.0625 0
0.40625 0.0625 0
0.40625 0.03125 0
0.4375 0.03125 0
0.40625 0.0625 0
0.4375 0.0625 0
0.4375 0 0
0.46875 0 0
0.4375 0.03125 0
0.46875 0.03125 0
0.46875 0 0
0.5 0 0
0.46875 0.03125 0
0.5 0.03125 0
0.4375 0.03125 0
0.46875 0.03125 0
0.4375 0.0625 0
0.46875 0.0625 0
0.46875 0.03125 0
0.5 0.03125 0
0.46875 0.0625 0
0.5 0.0625 0
0.375 0.0625 0
0.40625 0.0625 0
0.375 0.09375 0
0.40625 0.09375 0
0.40625 0.0625 0
0.4375 0.0625 0
0.40625 0.09375 0
0.4375 0.09375 0
0.375 0.09375 0
0.40625 0.09375 0
0.375 0.125 0
0.40625 0.125 0
0.40625 0.09375 0
0.4375 0.09375 0
0.40625 0.125 0
0.4375 0.125 0
0.4375 0.0625 0
0.46875 0.0625 0
0.4375 0.09375 0
0.46875 0.09375 0
0.46875 0.0625 0
0.5 0.0625 0
0.46875 0.09375 0
0.5 0.09375 0
0.4375 0.09375 0
0.46875 0.09375 0
0.4375 0.125 0
0.46875 0.125 0
0.46875 0.09375 0
0.5 0.09375 0
0.46875 0.125 0
0.5 0.125 0
0.25 0.125 0
0.28125 0.125 0
0.25 0.15625 0
0.28125 0.15625 0
0.28125 0.125 0
0.3125 0.125 0
0.28125 0.15625 0
0.3125 0.15625 0
0.25 0.15625 0
0.28125 0.15625 0
0.25 0.1875 0
0.28125 0.1875 0
0.28125 0.15625 0
0.3125 0.15625 0
0.28125 0.1875 0
0.3125 0.1875 0
0.3125 0.125 0
0.34375 0.125 0
0.3125 0.15625 0
0.34375 0.15625 0
0.34375 0.125 0
0.375 0.125 0
0.34375 0.15625 0
0.375 0.15625 0
0.3125 0.15625 0
0.34375 0.15625 0
0.3125 0.1875 0
0.34375 0.1875 0
0.34375 0.15625 0
0.375 0.15625 0
0.34375 0.1875 0
0.375 0.1875 0
0.25 0.1875 0
0.28125 0.1875 0
0.25 0.21875 0
0.28125 0.21875 0
0.28125 0.1875 0
0.3125 0.1875 0
0.28125 0.21875 0
0.3125 0.21875 0
0.25 0.21875 0
0.28125 0.21875 0
0.25 0.25 0
0.28125 0.25 0
0.28125 0.21875 0
0.3125 0.21875 0
0.28125 0.25 0
0.3125 0.25 0
0.3125 0.1875 0
0.34375 0.1875 0
0.3125 0.21875 0
0.34375 0.21875 0
0.34375 0.1875 0
0.375 0.1875 0
0.34375 0.21875 0
0.375 0.21875 0
0.3125 0.21875 0
0.34375 0.21875 0
0.3125 0.25 0
0.34375 0.25 0
0.34375 0.21875 0
0.375 0.21875 0
0.34375 0.25 0
0.375 0.25 0
0.375 0.125 0
0.40625 0.125 0
0.375 0.15625 0
0.40625 0.15625 0
0.40625 0.125 0
0.4375 0.125 0
0.40625 0.15625 0
0.4375 0.15625 0
0.375 0.15625 0
0.40625 0.15625 0
0.375 0.1875 0
0.40625 0.1875 0
0.40625 0.15625 0
0.4375 0.15625 0
0.40625 0.1875 0
0.4375 0.1875 0
0.4375 0.125 0
0.46875 0.125 0
0.4375 0.15625 0
0.46875 0.15625 0
0.46875 0.125 0
0.5 0.125 0
0.46875 0.15625 0
0.5 0.15625 0
0.4375 0.15625 0
0.46875 0.15625 0
0.4375 0.1875 0
0.46875 0.1875 0
0.46875 0.15625 0
0.5 0.15625 0
0.46875 0.1875 0
0.5 0.1875 0
0.375 0.1875 0
0.40625 0.1875 0
0.375 0.21875 0
0.40625 0.21875 0
0.40625 0.1875 0
0.4375 0.1875 0
0.40625 0.21875 0
0.4375 0.21875 0
0.375 0.21875 0
0.40625 0.21875 0
0.375 0.25 0
0.40625 0.25 0
0.40625 0.21875 0
0.4375 0.21875 0
0.40625 0.25 0
0.4375 0.25 0
0.4375 0.1875 0
0.46875 0.1875 0
0.4375 0.21875 0
0.46875 0.21875 0
0.46875 0.1875 0
0.5 0.1875 0
0.46875 0.21875 0
0.5 0.21875 0
0.4375 0.21875 0
0.46875 0.21875 0
0.4375 0.25 0
0.46875 0.25 0
0.46875 0.21875 0
0.5 0.21875 0
0.46875 0.25 0
0.5 0.25 0
0 0.25 0
0.03125 0.25 0
0 0.28125 0
0.03125 0.28125 0
0.03125 0.25 0
0.0625 0.25 0
0.03125 0.28125 0
0.0625 0.28125 0
0 0.28125 0
0.03125 0.28125 0
0 0.3125 0
0.03125 0.3125 0
0.03125 0.28125 0
0.0625 0.28125 0
0.03125 0.3125 0
0.0625 0.3125 0
0.0625 0.25 0
0.09375 0.25 0
0.0625 0.28125 0
0.09375 0.28125 0
0.09375 0.25 0
0.125 0.25 0
0.09375 0.28125 0
0.125 0.28125 0
0.0625 0.28125 0
0.09375 0.28125 0
0.0625 0.3125 0
0.09375 0.3125 0
0.09375 0.28125 0
0.125 0.28125 0
0.09375 0.3125 0
0.125 0.3125 0
0 0.3125 0
0.03125 0.3125 0
0 0.34375 0
0.03125 0.34375 0
0.03125 0.3125 0
0.0625 0.3125 0
0.03125 0.34375 0
0.0625 0.34375 0
0 0.34375 0
0.03125 0.34375 0
0 0.375 0
0.03125 0.375 0
0.03125 0.34375 0
0.0625 0.34375 0
0.03125 0.375 0
0.0625 0.375 0
0.0625 0.3125 0
0.09375 0.3125 0
0.0625 0.34375 0
0.09375 0.34375 0
0.09375 0.3125 0
0.125 0.3125 0
0.09375 0.34375 0
0.125 0.34375 0
0.0625 0.34375 0
0.09375 0.34375 0
0.0625 0.375 0
0.09375 0.375 0
0.09375 0.34375 0
0.125 0.34375 0
0.09375 0.375 0
0.125 0.375 0
0.125 0.25 0
0.15625 0.25 0
0.125 0.28125 0
0.15625 0.28125 0
0.15625 0.25 0
0.1875 0.25 0
0.15625 0.28125 0
0.1875 0.28125 0
0.125 0.28125 0
0.15625 0.28125 0
0.125 0.3125 0
0.15625 0.3125 0
0.15625 0.28125 0
0.1875 0.28125 0
0.15625 0.3125 0
0.1875 0.3125 0
0.1875 0.25 0
0.21875 0.25 0
0.1875 0.28125 0
0.21875 0.28125 0
0.21875 0.25 0
0.25 0.25 0
0.21875 0.28125 0
0.25 0.28125 0
0.1875 0.28125 0
0.21875 0.28125 0
0.1875 0.3125 0
0.21875 0.3125 0
0.21875 0.28125 0
0.25 0.28125 0
0.21875 0.3125 0
0.25 0.3125 0
0.125 0.3125 0
0.15625 0.3125 0
0.125 0.34375 0
0.15625 0.34375 0
0.15625 0.3125 0
0.1875 0.3125 0
0.15625 0.34375 0
0.1875 0.34375 0
0.125 0.34375 0
[...]
POINT_DATA 4096
SCALARS u_x double 1
LOOKUP_TABLE default
-1.11539e-06 1.49055e-05 -5.63455e-05 -7.88164e-05 1.49055e-05 2.1037e-05 -7.88164e-05 -0.000457734 -5.63455e-05 -7.88164e-05 -0.000178387 -0.000254977 -7.88164e-05 -0.000457734 -0.000254977 -0.0010624 2.1037e-05 1.55016e-05 -0.000457734 -0.00112273 1.55016e-05 4.2432e-06 -0.00112273 -0.00200846 -0.000457734 -0.00112273 -0.0010624 -0.0022909 -0.00112273 -0.00200846 -0.0022909 -0.00385371 -0.000178387 -0.000254977 -0.000295306 -0.000407517 -0.000254977 -0.0010624 -0.000407517 -0.00159432 -0.000295306 -0.000407517 -0.000361286 -0.000522706 -0.000407517 -0.00159432 -0.000522706 -0.0020044 -0.0010624 -0.0022909 -0.00159432 -0.00329224 -0.0022909 -0.00385371 -0.00329224 -0.00538652 -0.00159432 -0.00329224 -0.0020044 -0.00407855 -0.00329224 -0.00538652 -0.00407855 -0.00659182 4.2432e-06 -8.97545e-06 -0.00200846 -0.00302288 -8.97545e-06 -2.23362e-05 -0.00302288 -0.00409096 -0.00200846 -0.00302288 -0.00385371 -0.00561536 -0.00302288 -0.00409096 -0.00561536 -0.00746297 -2.23362e-05 -3.50905e-05 -0.00409096 -0.00515709 -3.50905e-05 -4.69581e-05 -0.00515709 -0.00618279 -0.00409096 -0.00515709 -0.00746297 -0.00930727 -0.00515709 -0.00618279 -0.00930727 -0.0110833 -0.00385371 -0.00561536 -0.00538652 -0.00771079 -0.00561536 -0.00746297 -0.00771079 -0.010132 -0.00538652 -0.00771079 -0.00659182 -0.00934956 -0.00771079 -0.010132 -0.00934956 -0.0122034 -0.00746297 -0.00930727 -0.010132 -0.0125424 -0.00930727 -0.0110833 -0.0125424 -0.0148612 -0.010132 -0.0125424 -0.0122034 -0.0150343 -0.0125424 -0.0148612 -0.0150343 -0.0177524 -0.000361286 -0.000522706 -0.000355832 -0.000612231 -0.000522706 -0.0020044 -0.000612231 -0.00231004 -0.000355832 -0.000612231 -0.000270639 -0.000690857 -0.000612231 -0.00231004 -0.000690857 -0.0025472 -0.0020044 -0.00407855 -0.00231004 -0.00468358 -0.00407855 -0.00659182 -0.00468358 -0.00753223 -0.00231004 -0.00468358 -0.0025472 -0.00516952 -0.00468358 -0.00753223 -0.00516952 -0.00829971 -0.000270639 -0.000690857 -0.000102022 -0.000770848 -0.000690857 -0.0025472 -0.000770848 -0.00275084 -0.000102022 -0.000770848 0.000152548 -0.000861366 -0.000770848 -0.00275084 -0.000861366 -0.00294895 -0.0025472 -0.00516952 -0.00275084 -0.005599 -0.00516952 -0.00829971 -0.005599 -0.00898572 -0.00275084 -0.005599 -0.00294895 -0.00602402 -0.005599 -0.00898572 -0.00602402 -0.00966702 -0.00659182 -0.00934956 -0.00753223 -0.0106363 -0.00934956 -0.0122034 -0.0106363 -0.0138323 -0.00753223 -0.0106363 -0.00829971 -0.0116982 -0.0106363 -0.0138323 -0.0116982 -0.0151851 -0.0122034 -0.0150343 -0.0138323 -0.016992 -0.0150343 -0.0177524 -0.016992 -0.0200196 -0.0138323 -0.016992 -0.0151851 -0.0186237 -0.016992 -0.0200196 -0.0186237 -0.0219127 -0.00829971 -0.0116982 -0.00898572 -0.0126567 -0.0116982 -0.0151851 -0.0126567 -0.0164149 -0.00898572 -0.0126567 -0.00966702 -0.0136132 -0.0126567 -0.0164149 -0.0136132 -0.0176473 -0.0151851 -0.0186237 -0.0164149 -0.0201143 -0.0186237 -0.0219127 -0.0201143 -0.0236481 -0.0164149 -0.0201143 -0.0176473 -0.021613 -0.0201143 -0.0236481 -0.021613 -0.0253977 -4.69581e-05 -5.7861e-05 -0.00618279 -0.00714182 -5.7861e-05 -6.77783e-05 -0.00714182 -0.00801581 -0.00618279 -0.00714182 -0.0110833 -0.0127447 -0.00714182 -0.00801581 -0.0127447 -0.0142584 -6.77783e-05 -7.66815e-05 -0.00801581 -0.00879097 -7.66815e-05 -8.45121e-05 -0.00879097 -0.00945613 -0.00801581 -0.00879097 -0.0142584 -0.0155991 -0.00879097 -0.00945613 -0.0155991 -0.0167469 -0.0110833 -0.0127447 -0.0148612 -0.0170293 -0.0127447 -0.0142584 -0.0170293 -0.0190032 -0.0148612 -0.0170293 -0.0177524 -0.0202911 -0.0170293 -0.0190032 -0.0202911 -0.0226002 -0.0142584 -0.0155991 -0.0190032 -0.0207495 -0.0155991 -0.0167469 -0.0207495 -0.0222417 -0.0190032 -0.0207495 -0.0226002 -0.0246414 -0.0207495 -0.0222417 -0.0246414 -0.0263839 -8.45121e-05 -9.11801e-05 -0.00945613 -0.0100017 -9.11801e-05 -9.65732e-05 -0.0100017 -0.0104192 -0.00945613 -0.0100017 -0.0167469 -0.0176848 -0.0100017 -0.0104192 -0.0176848 -0.0183983 -9.65732e-05 -0.000100568 -0.0104192 -0.0107011 -0.000100568 -0.000103041 -0.0107011 -0.0108412 -0.0104192 -0.0107011 -0.0183983 -0.0188751 -0.0107011 -0.0108412 -0.0188751 -0.019105 -0.0167469 -0.0176848 -0.0222417 -0.0234579 -0.0176848 -0.0183983 -0.0234579 -0.0243794 -0.0222417 -0.0234579 -0.0263839 -0.0278021 -0.0234579 -0.0243794 -0.0278021 -0.0288745 -0.0183983 -0.0188751 -0.0243794 -0.0249905 -0.0188751 -0.019105 -0.0249905 -0.0252786 -0.0243794 -0.0249905 -0.0288745 -0.0295834 -0.0249905 -0.0252786 -0.0295834 -0.0299143 -0.0177524 -0.0202911 -0.0200196 -0.0228437 -0.0202911 -0.0226002 -0.0228437 -0.0254107 -0.0200196 -0.0228437 -0.0219127 -0.0249774 -0.0228437 -0.0254107 -0.0249774 -0.0277619 -0.0226002 -0.0246414 -0.0254107 -0.0276788 -0.0246414 -0.0263839 -0.0276788 -0.0296146 -0.0254107 -0.0276788 -0.0277619 -0.0302225 -0.0276788 -0.0296146 -0.0302225 -0.0323243 -0.0219127 -0.0249774 -0.0236481 -0.0269387 -0.0249774 -0.0277619 -0.0269387 -0.0299282 -0.0236481 -0.0269387 -0.0253977 -0.0289205 -0.0269387 -0.0299282 -0.0289205 -0.032122 -0.0277619 -0.0302225 -0.0299282 -0.0325719 -0.0302225 -0.0323243 -0.0325719 -0.0348337 -0.0299282 -0.0325719 -0.032122 -0.0349565 -0.0325719 -0.0348337 -0.0349565 -0.0373876 -0.0263839 -0.0278021 -0.0296146 -0.0311904 -0.0278021 -0.0288745 -0.0311904 -0.0323827 -0.0296146 -0.0311904 -0.0323243 -0.0340378 -0.0311904 -0.0323827 -0.0340378 -0.0353383 -0.0288745 -0.0295834 -0.0323827 -0.0331719 -0.0295834 -0.0299143 -0.0331719 -0.0335422 -0.0323827 -0.0331719 -0.0353383 -0.0362047 -0.0331719 -0.0335422 -0.0362047 -0.0366195 -0.0323243 -0.0340378 -0.0348337 -0.0366834 -0.0340378 -0.0353383 -0.0366834 -0.0380947 -0.0348337 -0.0366834 -0.0373876 -0.039384 -0.0366834 -0.0380947 -0.039384 -0.0409188 -0.0353383 -0.0362047 -0.0380947 -0.0390453 -0.0362047 -0.0366195 -0.0390453 -0.0395159 -0.0380947 -0.0390453 -0.0409188 -0.0419678 -0.0390453 -0.0395159 -0.0419678 -0.0425099 0.000152548 -0.000861366 0.000496213 -0.00096897 -0.000861366 -0.00294895 -0.00096897 -0.00316193 0.000496213 -0.00096897 0.000933517 -0.00109843 -0.00096897 -0.00316193 -0.00109843 -0.00340408 -0.00294895 -0.00602402 -0.00316193 -0.00648367 -0.00602402 -0.00966702 -0.00648367 -0.0104023 -0.00316193 -0.00648367 -0.00340408 -0.00700625 -0.00648367 -0.0104023 -0.00700625 -0.0112345 0.000933517 -0.00109843 0.00147073 -0.00125359 -0.00109843 -0.00340408 -0.00125359 -0.0036859 0.00147073 -0.00125359 0.00211601 -0.00143804 -0.00125359 -0.0036859 -0.00143804 -0.00401615 -0.00340408 -0.00700625 -0.0036859 -0.00761296 -0.00700625 -0.0112345 -0.00761296 -0.0121962 -0.0036859 -0.00761296 -0.00401615 -0.00832176 -0.00761296 -0.0121962 -0.00832176 -0.0133146 -0.00966702 -0.0136132 -0.0104023 -0.0146456 -0.0136132 -0.0176473 -0.0146456 -0.018978 -0.0104023 -0.0146456 -0.0112345 -0.0158111 -0.0146456 -0.018978 -0.0158111 -0.0204773 -0.0176473 -0.021613 -0.018978 -0.0232325 -0.021613 -0.0253977 -0.0232325 -0.0272895 -0.018978 -0.0232325 -0.0204773 -0.0250543 -0.0232325 -0.0272895 -0.0250543 -0.0294153 -0.0112345 -0.0158111 -0.0121962 -0.0171528 -0.0158111 -0.0204773 -0.0171528 -0.0221977 -0.0121962 -0.0171528 -0.0133146 -0.0187067 -0.0171528 -0.0221977 -0.0187067 -0.0241822 -0.0204773 -0.0250543 -0.0221977 -0.0271388 -0.0250543 -0.0294153 -0.0271388 -0.0318414 -0.0221977 -0.0271388 -0.0241822 -0.0295342 -0.0271388 -0.0318414 -0.0295342 -0.0346195 0.00211601 -0.00143804 0.00287949 -0.00165575 -0.00143804 -0.00401615 -0.00165575 -0.00440376 0.00287949 -0.00165575 0.00377349 -0.00191158 -0.00165575 -0.00440376 -0.00191158 -0.00485941 -0.00401615 -0.00832176 -0.00440376 -0.0091507 -0.00832176 -0.0133146 -0.0091507 -0.0146169 -0.00440376 -0.0091507 -0.00485941 -0.010121 -0.0091507 -0.0146169 -0.010121 -0.0161339 0.00377349 -0.00191158 0.00481274 -0.00221177 -0.00191158 -0.00485941 -0.00221177 -0.00539714 0.00481274 -0.00221177 0.00601488 -0.00256464 -0.00221177 -0.00539714 -0.00256464 -0.00603621 -0.00485941 -0.010121 -0.00539714 -0.0112599 -0.010121 -0.0161339 -0.0112599 -0.0179048 -0.00539714 -0.0112599 -0.00603621 -0.0126039 -0.0112599 -0.0179048 -0.0126039 -0.0199806 -0.0133146 -0.0187067 -0.0146169 -0.0205076 -0.0187067 -0.0241822 -0.0205076 -0.0264713 -0.0146169 -0.0205076 -0.0161339 -0.0225946 -0.0205076 -0.0264713 -0.0225946 -0.0291092 -0.0241822 -0.0295342 -0.0264713 -0.0322844 -0.0295342 -0.0346195 -0.0322844 -0.0377951 -0.0264713 -0.0322844 -0.0291092 -0.035436 -0.0322844 -0.0377951 -0.035436 -0.0414141 -0.0161339 -0.0225946 -0.0179048 -0.0250154 -0.0225946 -0.0291092 -0.0250154 -0.0321488 -0.0179048 -0.0250154 -0.0199806 -0.0278315 -0.0250154 -0.0321488 -0.0278315 -0.035656 -0.0291092 -0.035436 -0.0321488 -0.0390426 -0.035436 -0.0414141 -0.0390426 -0.0455278 -0.0321488 -0.0390426 -0.035656 -0.0431696 -0.0390426 -0.0455278 -0.0431696 -0.0501961 -0.0253977 -0.0289205 -0.0272895 -0.031065 -0.0289205 -0.032122 -0.031065 -0.0344978 -0.0272895 -0.031065 -0.0294153 -0.0334725 -0.031065 -0.0344978 -0.0334725 -0.0371637 -0.032122 -0.0349565 -0.0344978 -0.0375421 -0.0349565 -0.0373876 -0.0375421 -0.0401609 -0.0344978 -0.0375421 -0.0371637 -0.0404429 -0.0375421 -0.0401609 -0.0404429 -0.0432734 -0.0294153 -0.0334725 -0.0318414 -0.0362143 -0.0334725 -0.0371637 -0.0362143 -0.0401945 -0.0318414 -0.0362143 -0.0346195 -0.039344 -0.0362143 -0.0401945 -0.039344 -0.0436447 -0.0371637 -0.0404429 -0.0401945 -0.0437366 -0.0404429 -0.0432734 -0.0437366 -0.0468054 -0.0401945 -0.0437366 -0.0436447 -0.0474783 -0.0437366 -0.0468054 -0.0474783 -0.0508119 -0.0373876 -0.039384 -0.0401609 -0.0423228 -0.039384 -0.0409188 -0.0423228 -0.0439999 -0.0401609 -0.0423228 -0.0432734 -0.0456241 -0.0423228 -0.0439999 -0.0456241 -0.0474668 -0.0409188 -0.0419678 -0.0439999 -0.0451668 -0.0419678 -0.0425099 -0.0451668 -0.0457997 -0.0439999 -0.0451668 -0.0474668 -0.0487746 -0.0451668 -0.0457997 -0.0487746 -0.0495213 -0.0432734 -0.0456241 -0.0468054 -0.0493707 -0.0456241 -0.0474668 -0.0493707 -0.0514047 -0.0468054 -0.0493707 -0.0508119 -0.0536181 -0.0493707 -0.0514047 -0.0536181 -0.0558705 -0.0474668 -0.0487746 -0.0514047 -0.0528797 -0.0487746 -0.0495213 -0.0528797 -0.053767 -0.0514047 -0.0528797 -0.0558705 -0.0575415 -0.0528797 -0.053767 -0.0575415 -0.0586003 -0.0346195 -0.039344 -0.0377951 -0.0429067 -0.039344 -0.0436447 -0.0429067 -0.0475581 -0.0377951 -0.0429067 -0.0414141 -0.046946 -0.0429067 -0.0475581 -0.046946 -0.0519742 -0.0436447 -0.0474783 -0.0475581 -0.0517095 -0.0474783 -0.0508119 -0.0517095 -0.0553327 -0.0475581 -0.0517095 -0.0519742 -0.0564653 -0.0517095 -0.0553327 -0.0564653 -0.0603985 -0.0414141 -0.046946 -0.0455278 -0.0515079 -0.046946 -0.0519742 -0.0515079 -0.0569324 -0.0455278 -0.0515079 -0.0501961 -0.0566439 -0.0515079 -0.0569324 -0.0566439 -0.0624733 -0.0519742 -0.0564653 -0.0569324 -0.0617776 -0.0564653 -0.0603985 -0.0617776 -0.0660337 -0.0569324 -0.0617776 -0.0624733 -0.0676752 -0.0617776 -0.0660337 -0.0676752 -0.0722557 -0.0508119 -0.0536181 -0.0553327 -0.0584048 -0.0536181 -0.0558705 -0.0584048 -0.0609027 -0.0553327 -0.0584048 -0.0603985 -0.063758 -0.0584048 -0.0609027 -0.063758 -0.0665268 -0.0558705 -0.0575415 -0.0609027 -0.0628004 -0.0575415 -0.0586003 -0.0628004 -0.0640661 -0.0609027 -0.0628004 -0.0665268 -0.0686828 -0.0628004 -0.0640661 -0.0686828 -0.0701949 -0.0603985 -0.063758 -0.0660337 -0.0696958 -0.063758 -0.0665268 -0.0696958 -0.0727566 -0.0660337 -0.0696958 -0.0722557 -0.0762253 -0.0696958 -0.0727566 -0.0762253 -0.079591 -0.0665268 -0.0686828 -0.0727566 -0.0752012 -0.0686828 -0.0701949 -0.0752012 -0.0770022 -0.0727566 -0.0752012 -0.079591 -0.0823498 -0.0752012 -0.0770022 -0.0823498 -0.0844823 -0.000103041 -0.000103875 -0.0108412 -0.0108345 -0.000103875 -0.000102965 -0.0108345 -0.0106776 -0.0108412 -0.0108345 -0.019105 -0.0190801 -0.0108345 -0.0106776 -0.0190801 -0.0187955 -0.000102965 -0.00010023 -0.0106776 -0.010369 -0.00010023 -9.56076e-05 -0.010369 -0.0099093 -0.0106776 -0.010369 -0.0187955 -0.0182493 -0.010369 -0.0099093 -0.0182493 -0.0174436 -0.019105 -0.0190801 -0.0252786 -0.0252343 -0.0190801 -0.0187955 -0.0252343 -0.0248516 -0.0252786 -0.0252343 -0.0299143 -0.0298566 -0.0252343 -0.0248516 -0.0298566 -0.0294037 -0.0187955 -0.0182493 -0.0248516 -0.0241291 -0.0182493 -0.0174436 -0.0241291 -0.0230698 -0.0248516 -0.0241291 -0.0294037 -0.0285539 -0.0241291 -0.0230698 -0.0285539 -0.0273111 -9.56076e-05 -8.90661e-05 -0.0099093 -0.00930156 -8.90661e-05 -8.05999e-05 -0.00930156 -0.00855202 -0.0099093 -0.00930156 -0.0174436 -0.0163845 -0.00930156 -0.00855202 -0.0163845 -0.0150839 -8.05999e-05 -7.02379e-05 -0.00855202 -0.00767089 -7.02379e-05 -5.80608e-05 -0.00767089 -0.00667377 -0.00855202 -0.00767089 -0.0150839 -0.0135605 -0.00767089 -0.00667377 -0.0135605 -0.0118421 -0.0174436 -0.0163845 -0.0230698 -0.0216827 -0.0163845 -0.0150839 -0.0216827 -0.0199837 -0.0230698 -0.0216827 -0.0273111 -0.0256857 -0.0216827 -0.0199837 -0.0256857 -0.0236964 -0.0150839 -0.0135605 -0.0199837 -0.0179978 -0.0135605 -0.0118421 -0.0179978 -0.0157618 -0.0199837 -0.0179978 -0.0236964 -0.0213723 -0.0179978 -0.0157618 -0.0213723 -0.0187558 -0.0299143 -0.0298566 -0.0335422 -0.0334816 -0.0298566 -0.0294037 -0.0334816 -0.0329826 -0.0335422 -0.0334816 -0.0366195 -0.0365692 -0.0334816 -0.0329826 -0.0365692 -0.0360446 -0.0294037 -0.0285539 -0.0329826 -0.0320428 -0.0285539 -0.0273111 -0.0320428 -0.0306656 -0.0329826 -0.0320428 -0.0360446 -0.0350417 -0.0320428 -0.0306656 -0.0350417 -0.0335627 -0.0366195 -0.0365692 -0.0395159 -0.0394908 -0.0365692 -0.0360446 -0.0394908 -0.0389583 -0.0395159 -0.0394908 -0.0425099 -0.0425265 -0.0394908 -0.0389583 -0.0425265 -0.0420025 -0.0360446 -0.0350417 -0.0389583 -0.0379118 -0.0350417 -0.0335627 -0.0379118 -0.0363509 -0.0389583 -0.0379118 -0.0420025 -0.0409276 -0.0379118 -0.0363509 -0.0409276 -0.0392971 -0.0273111 -0.0256857 -0.0306656 -0.0288621 -0.0256857 -0.0236964 -0.0288621 -0.026652 -0.0306656 -0.0288621 -0.0335627 -0.0316175 -0.0288621 -0.026652 -0.0316175 -0.0292258 -0.0236964 -0.0213723 -0.026652 -0.0240666 -0.0213723 -0.0187558 -0.0240666 -0.0211522 -0.026652 -0.0240666 -0.0292258 -0.0264198 -0.0240666 -0.0211522 -0.0264198 -0.0232481 -0.0335627 -0.0316175 -0.0363509 -0.0342832 -0.0316175 -0.0292258 -0.0342832 -0.0317268 -0.0363509 -0.0342832 -0.0392971 -0.037115 -0.0342832 -0.0317268 -0.037115 -0.0343963 -0.0292258 -0.0264198 -0.0317268 -0.0287139 -0.0264198 -0.0232481 -0.0287139 -0.0252946 -0.0317268 -0.0287139 -0.0343963 -0.0311717 -0.0287139 -0.0252946 -0.0311717 -0.0274926 -5.80608e-05 -4.42144e-05 -0.00667377 -0.005584 -4.42144e-05 -2.90803e-05 -0.005584 -0.0044352 -0.00667377 -0.005584 -0.0118421 -0.00996974 -0.005584 -0.0044352 -0.00996974 -0.00800083 -2.90803e-05 -1.29233e-05 -0.0044352 -0.00327808 -1.29233e-05 1.49986e-06 -0.00327808 -0.00216793 -0.0044352 -0.00327808 -0.00800083 -0.00601758 -0.00327808 -0.00216793 -0.00601758 -0.00411255 -0.0118421 -0.00996974 -0.0157618 -0.0133282 -0.00996974 -0.00800083 -0.0133282 -0.0107699 -0.0157618 -0.0133282 -0.0187558 -0.0159071 -0.0133282 -0.0107699 -0.0159071 -0.0129086 -0.00800083 -0.00601758 -0.0107699 -0.0081874 -0.00601758 -0.00411255 -0.0081874 -0.00569504 -0.0107699 -0.0081874 -0.0129086 -0.00987264 -0.0081874 -0.00569504 -0.00987264 -0.00692771 1.49986e-06 1.43288e-05 -0.00216793 -0.00125018 1.43288e-05 5.72278e-05 -0.00125018 -0.000271818 -0.00216793 -0.00125018 -0.00411255 -0.00248371 -0.00125018 -0.000271818 -0.00248371 -0.000883275 5.72278e-05 -1.56326e-05 -0.000271818 -0.00113121 -1.56326e-05 0.00900777 -0.00113121 0.00800368 -0.000271818 -0.00113121 -0.000883275 -0.0013664 -0.00113121 0.00800368 -0.0013664 0.00834487 -0.00411255 -0.00248371 -0.00569504 -0.00351503 -0.00248371 -0.000883275 -0.00351503 -0.00142593 -0.00569504 -0.00351503 -0.00692771 -0.00431385 -0.00351503 -0.00142593 -0.00431385 -0.00184006 -0.000883275 -0.0013664 -0.00142593 -0.00154556 -0.0013664 0.00834487 -0.00154556 0.00819776 -0.00142593 -0.00154556 -0.00184006 -0.00166017 -0.00154556 0.00819776 -0.00166017 0.00811873 -0.0187558 -0.0159071 -0.0211522 -0.0179741 -0.0159071 -0.0129086 -0.0179741 -0.0146217 -0.0211522 -0.0179741 -0.0232481 -0.0197804 -0.0179741 -0.0146217 -0.0197804 -0.0161127 -0.0129086 -0.00987264 -0.0146217 -0.0112167 -0.00987264 -0.00692771 -0.0112167 -0.00790058 -0.0146217 -0.0112167 -0.0161127 -0.0123769 -0.0112167 -0.00790058 -0.0123769 -0.00872833 -0.0232481 -0.0197804 -0.0252946 -0.0215429 -0.0197804 -0.0161127 -0.0215429 -0.0175626 -0.0252946 -0.0215429 -0.0274926 -0.0234377 -0.0215429 -0.0175626 -0.0234377 -0.0191199 -0.0161127 -0.0123769 -0.0175626 -0.0134973 -0.0123769 -0.00872833 -0.0134973 -0.00951928 -0.0175626 -0.0134973 -0.0191199 -0.0146976 -0.0134973 -0.00951928 -0.0146976 -0.0103633 -0.00692771 -0.00431385 -0.00790058 -0.00493182 -0.00431385 -0.00184006 -0.00493182 -0.00214704 -0.00790058 -0.00493182 -0.00872833 -0.00544687 -0.00493182 -0.00214704 -0.00544687 -0.00239346 -0.00184006 -0.00166017 -0.00214704 -0.00174584 -0.00166017 0.00811873 -0.00174584 0.00811729 -0.00214704 -0.00174584 -0.00239346 -0.001823 -0.00174584 0.00811729 -0.001823 0.00818751 -0.00872833 -0.00544687 -0.00951928 -0.00593279 -0.00544687 -0.00239346 -0.00593279 -0.00261997 -0.00951928 -0.00593279 -0.0103633 -0.00644957 -0.00593279 -0.00261997 -0.00644957 -0.00285828 -0.00239346 -0.001823 -0.00261997 -0.00190421 -0.001823 0.00818751 -0.00190421 0.00833235 -0.00261997 -0.00190421 -0.00285828 -0.00199933 -0.00190421 0.00833235 -0.00199933 0.00855167 -0.0425099 -0.0425265 -0.0457997 -0.0458768 -0.0425265 -0.0420025 -0.0458768 -0.0453786 -0.0457997 -0.0458768 -0.0495213 -0.0496811 -0.0458768 -0.0453786 -0.0496811 -0.0492289 -0.0420025 -0.0409276 -0.0453786 -0.0442894 -0.0409276 -0.0392971 -0.0442894 -0.0425989 -0.0453786 -0.0442894 -0.0492289 -0.0481422 -0.0442894 -0.0425989 -0.0481422 -0.0464025 -0.0495213 -0.0496811 -0.053767 -0.0540362 -0.0496811 -0.0492289 -0.0540362 -0.0536558 -0.053767 -0.0540362 -0.0586003 -0.0590119 -0.0540362 -0.0536558 -0.0590119 -0.058737 -0.0492289 -0.0481422 -0.0536558 -0.0525943 -0.0481422 -0.0464025 -0.0525943 -0.0508226 -0.0536558 -0.0525943 -0.058737 -0.057733 -0.0525943 -0.0508226 -0.057733 -0.0559573 -0.0392971 -0.037115 -0.0425989 -0.040305 -0.037115 -0.0343963 -0.040305 -0.0374182 -0.0425989 -0.040305 -0.0464025 -0.0439999 -0.040305 -0.0374182 -0.0439999 -0.040937 -0.0343963 -0.0311717 -0.0374182 -0.0339661 -0.0311717 -0.0274926 -0.0339661 -0.0300006 -0.0374182 -0.0339661 -0.040937 -0.0372365 -0.0339661 -0.0300006 -0.0372365 -0.0329493 -0.0464025 -0.0439999 -0.0508226 -0.0483192 -0.0439999 -0.040937 -0.0483192 -0.0450758 -0.0508226 -0.0483192 -0.0559573 -0.053372 -0.0483192 -0.0450758 -0.053372 -0.0499529 -0.040937 -0.0372365 -0.0450758 -0.0411063 -0.0372365 -0.0329493 -0.0411063 -0.0364583 -0.0450758 -0.0411063 -0.0499529 -0.0457 -0.0411063 -0.0364583 -0.0457 -0.0406529 -0.0586003 -0.0590119 -0.0640661 -0.0646603 -0.0590119 -0.058737 -0.0646603 -0.0645351 -0.0640661 -0.0646603 -0.0701949 -0.0710202 -0.0646603 -0.0645351 -0.0710202 -0.071102 -0.058737 -0.057733 -0.0645351 -0.0636348 -0.057733 -0.0559573 -0.0636348 -0.061899 -0.0645351 -0.0636348 -0.071102 -0.0703693 -0.0636348 -0.061899 -0.0703693 -0.0687397 -0.0701949 -0.0710202 -0.0770022 -0.0781154 -0.0710202 -0.071102 -0.0781154 -0.078476 -0.0770022 -0.0781154 -0.0844823 -0.0859466 -0.0781154 -0.078476 -0.0859466 -0.0866728 -0.071102 -0.0703693 -0.078476 -0.0779968 -0.0703693 -0.0687397 -0.0779968 -0.0765695 -0.078476 -0.0779968 -0.0866728 -0.0865583 -0.0779968 -0.0765695 -0.0865583 -0.0854655 -0.0559573 -0.053372 -0.061899 -0.0592683 -0.053372 -0.0499529 -0.0592683 -0.055695 -0.061899 -0.0592683 -0.0687397 -0.0661256 -0.0592683 -0.055695 -0.0661256 -0.0624462 -0.0499529 -0.0457 -0.055695 -0.0511576 -0.0457 -0.0406529 -0.0511576 -0.0456804 -0.055695 -0.0511576 -0.0624462 -0.0576468 -0.0511576 -0.0456804 -0.0576468 -0.051725 -0.0687397 -0.0661256 -0.0765695 -0.0740699 -0.0661256 -0.0624462 -0.0740699 -0.0703722 -0.0765695 -0.0740699 -0.0854655 -0.0832263 -0.0740699 -0.0703722 -