# vtk DataFile Version 3.0
#This file was generated by the deal.II library on 2026/1/5 at 14:19:30
ASCII
DATASET UNSTRUCTURED_GRID

POINTS 4096 double
0 0 0
0.03125 0 0
0 0.03125 0
0.03125 0.03125 0
0.03125 0 0
0.0625 0 0
0.03125 0.03125 0
0.0625 0.03125 0
0 0.03125 0
0.03125 0.03125 0
0 0.0625 0
0.03125 0.0625 0
0.03125 0.03125 0
0.0625 0.03125 0
0.03125 0.0625 0
0.0625 0.0625 0
0.0625 0 0
0.09375 0 0
0.0625 0.03125 0
0.09375 0.03125 0
0.09375 0 0
0.125 0 0
0.09375 0.03125 0
0.125 0.03125 0
0.0625 0.03125 0
0.09375 0.03125 0
0.0625 0.0625 0
0.09375 0.0625 0
0.09375 0.03125 0
0.125 0.03125 0
0.09375 0.0625 0
0.125 0.0625 0
0 0.0625 0
0.03125 0.0625 0
0 0.09375 0
0.03125 0.09375 0
0.03125 0.0625 0
0.0625 0.0625 0
0.03125 0.09375 0
0.0625 0.09375 0
0 0.09375 0
0.03125 0.09375 0
0 0.125 0
0.03125 0.125 0
0.03125 0.09375 0
0.0625 0.09375 0
0.03125 0.125 0
0.0625 0.125 0
0.0625 0.0625 0
0.09375 0.0625 0
0.0625 0.09375 0
0.09375 0.09375 0
0.09375 0.0625 0
0.125 0.0625 0
0.09375 0.09375 0
0.125 0.09375 0
0.0625 0.09375 0
0.09375 0.09375 0
0.0625 0.125 0
0.09375 0.125 0
0.09375 0.09375 0
0.125 0.09375 0
0.09375 0.125 0
0.125 0.125 0
0.125 0 0
0.15625 0 0
0.125 0.03125 0
0.15625 0.03125 0
0.15625 0 0
0.1875 0 0
0.15625 0.03125 0
0.1875 0.03125 0
0.125 0.03125 0
0.15625 0.03125 0
0.125 0.0625 0
0.15625 0.0625 0
0.15625 0.03125 0
0.1875 0.03125 0
0.15625 0.0625 0
0.1875 0.0625 0
0.1875 0 0
0.21875 0 0
0.1875 0.03125 0
0.21875 0.03125 0
0.21875 0 0
0.25 0 0
0.21875 0.03125 0
0.25 0.03125 0
0.1875 0.03125 0
0.21875 0.03125 0
0.1875 0.0625 0
0.21875 0.0625 0
0.21875 0.03125 0
0.25 0.03125 0
0.21875 0.0625 0
0.25 0.0625 0
0.125 0.0625 0
0.15625 0.0625 0
0.125 0.09375 0
0.15625 0.09375 0
0.15625 0.0625 0
0.1875 0.0625 0
0.15625 0.09375 0
0.1875 0.09375 0
0.125 0.09375 0
0.15625 0.09375 0
0.125 0.125 0
0.15625 0.125 0
0.15625 0.09375 0
0.1875 0.09375 0
0.15625 0.125 0
0.1875 0.125 0
0.1875 0.0625 0
0.21875 0.0625 0
0.1875 0.09375 0
0.21875 0.09375 0
0.21875 0.0625 0
0.25 0.0625 0
0.21875 0.09375 0
0.25 0.09375 0
0.1875 0.09375 0
0.21875 0.09375 0
0.1875 0.125 0
0.21875 0.125 0
0.21875 0.09375 0
0.25 0.09375 0
0.21875 0.125 0
0.25 0.125 0
0 0.125 0
0.03125 0.125 0
0 0.15625 0
0.03125 0.15625 0
0.03125 0.125 0
0.0625 0.125 0
0.03125 0.15625 0
0.0625 0.15625 0
0 0.15625 0
0.03125 0.15625 0
0 0.1875 0
0.03125 0.1875 0
0.03125 0.15625 0
0.0625 0.15625 0
0.03125 0.1875 0
0.0625 0.1875 0
0.0625 0.125 0
0.09375 0.125 0
0.0625 0.15625 0
0.09375 0.15625 0
0.09375 0.125 0
0.125 0.125 0
0.09375 0.15625 0
0.125 0.15625 0
0.0625 0.15625 0
0.09375 0.15625 0
0.0625 0.1875 0
0.09375 0.1875 0
0.09375 0.15625 0
0.125 0.15625 0
0.09375 0.1875 0
0.125 0.1875 0
0 0.1875 0
0.03125 0.1875 0
0 0.21875 0
0.03125 0.21875 0
0.03125 0.1875 0
0.0625 0.1875 0
0.03125 0.21875 0
0.0625 0.21875 0
0 0.21875 0
0.03125 0.21875 0
0 0.25 0
0.03125 0.25 0
0.03125 0.21875 0
0.0625 0.21875 0
0.03125 0.25 0
0.0625 0.25 0
0.0625 0.1875 0
0.09375 0.1875 0
0.0625 0.21875 0
0.09375 0.21875 0
0.09375 0.1875 0
0.125 0.1875 0
0.09375 0.21875 0
0.125 0.21875 0
0.0625 0.21875 0
0.09375 0.21875 0
0.0625 0.25 0
0.09375 0.25 0
0.09375 0.21875 0
0.125 0.21875 0
0.09375 0.25 0
0.125 0.25 0
0.125 0.125 0
0.15625 0.125 0
0.125 0.15625 0
0.15625 0.15625 0
0.15625 0.125 0
0.1875 0.125 0
0.15625 0.15625 0
0.1875 0.15625 0
0.125 0.15625 0
0.15625 0.15625 0
0.125 0.1875 0
0.15625 0.1875 0
0.15625 0.15625 0
0.1875 0.15625 0
0.15625 0.1875 0
0.1875 0.1875 0
0.1875 0.125 0
0.21875 0.125 0
0.1875 0.15625 0
0.21875 0.15625 0
0.21875 0.125 0
0.25 0.125 0
0.21875 0.15625 0
0.25 0.15625 0
0.1875 0.15625 0
0.21875 0.15625 0
0.1875 0.1875 0
0.21875 0.1875 0
0.21875 0.15625 0
0.25 0.15625 0
0.21875 0.1875 0
0.25 0.1875 0
0.125 0.1875 0
0.15625 0.1875 0
0.125 0.21875 0
0.15625 0.21875 0
0.15625 0.1875 0
0.1875 0.1875 0
0.15625 0.21875 0
0.1875 0.21875 0
0.125 0.21875 0
0.15625 0.21875 0
0.125 0.25 0
0.15625 0.25 0
0.15625 0.21875 0
0.1875 0.21875 0
0.15625 0.25 0
0.1875 0.25 0
0.1875 0.1875 0
0.21875 0.1875 0
0.1875 0.21875 0
0.21875 0.21875 0
0.21875 0.1875 0
0.25 0.1875 0
0.21875 0.21875 0
0.25 0.21875 0
0.1875 0.21875 0
0.21875 0.21875 0
0.1875 0.25 0
0.21875 0.25 0
0.21875 0.21875 0
0.25 0.21875 0
0.21875 0.25 0
0.25 0.25 0
0.25 0 0
0.28125 0 0
0.25 0.03125 0
0.28125 0.03125 0
0.28125 0 0
0.3125 0 0
0.28125 0.03125 0
0.3125 0.03125 0
0.25 0.03125 0
0.28125 0.03125 0
0.25 0.0625 0
0.28125 0.0625 0
0.28125 0.03125 0
0.3125 0.03125 0
0.28125 0.0625 0
0.3125 0.0625 0
0.3125 0 0
0.34375 0 0
0.3125 0.03125 0
0.34375 0.03125 0
0.34375 0 0
0.375 0 0
0.34375 0.03125 0
0.375 0.03125 0
0.3125 0.03125 0
0.34375 0.03125 0
0.3125 0.0625 0
0.34375 0.0625 0
0.34375 0.03125 0
0.375 0.03125 0
0.34375 0.0625 0
0.375 0.0625 0
0.25 0.0625 0
0.28125 0.0625 0
0.25 0.09375 0
0.28125 0.09375 0
0.28125 0.0625 0
0.3125 0.0625 0
0.28125 0.09375 0
0.3125 0.09375 0
0.25 0.09375 0
0.28125 0.09375 0
0.25 0.125 0
0.28125 0.125 0
0.28125 0.09375 0
0.3125 0.09375 0
0.28125 0.125 0
0.3125 0.125 0
0.3125 0.0625 0
0.34375 0.0625 0
0.3125 0.09375 0
0.34375 0.09375 0
0.34375 0.0625 0
0.375 0.0625 0
0.34375 0.09375 0
0.375 0.09375 0
0.3125 0.09375 0
0.34375 0.09375 0
0.3125 0.125 0
0.34375 0.125 0
0.34375 0.09375 0
0.375 0.09375 0
0.34375 0.125 0
0.375 0.125 0
0.375 0 0
0.40625 0 0
0.375 0.03125 0
0.40625 0.03125 0
0.40625 0 0
0.4375 0 0
0.40625 0.03125 0
0.4375 0.03125 0
0.375 0.03125 0
0.40625 0.03125 0
0.375 0.0625 0
0.40625 0.0625 0
0.40625 0.03125 0
0.4375 0.03125 0
0.40625 0.0625 0
0.4375 0.0625 0
0.4375 0 0
0.46875 0 0
0.4375 0.03125 0
0.46875 0.03125 0
0.46875 0 0
0.5 0 0
0.46875 0.03125 0
0.5 0.03125 0
0.4375 0.03125 0
0.46875 0.03125 0
0.4375 0.0625 0
0.46875 0.0625 0
0.46875 0.03125 0
0.5 0.03125 0
0.46875 0.0625 0
0.5 0.0625 0
0.375 0.0625 0
0.40625 0.0625 0
0.375 0.09375 0
0.40625 0.09375 0
0.40625 0.0625 0
0.4375 0.0625 0
0.40625 0.09375 0
0.4375 0.09375 0
0.375 0.09375 0
0.40625 0.09375 0
0.375 0.125 0
0.40625 0.125 0
0.40625 0.09375 0
0.4375 0.09375 0
0.40625 0.125 0
0.4375 0.125 0
0.4375 0.0625 0
0.46875 0.0625 0
0.4375 0.09375 0
0.46875 0.09375 0
0.46875 0.0625 0
0.5 0.0625 0
0.46875 0.09375 0
0.5 0.09375 0
0.4375 0.09375 0
0.46875 0.09375 0
0.4375 0.125 0
0.46875 0.125 0
0.46875 0.09375 0
0.5 0.09375 0
0.46875 0.125 0
0.5 0.125 0
0.25 0.125 0
0.28125 0.125 0
0.25 0.15625 0
0.28125 0.15625 0
0.28125 0.125 0
0.3125 0.125 0
0.28125 0.15625 0
0.3125 0.15625 0
0.25 0.15625 0
0.28125 0.15625 0
0.25 0.1875 0
0.28125 0.1875 0
0.28125 0.15625 0
0.3125 0.15625 0
0.28125 0.1875 0
0.3125 0.1875 0
0.3125 0.125 0
0.34375 0.125 0
0.3125 0.15625 0
0.34375 0.15625 0
0.34375 0.125 0
0.375 0.125 0
0.34375 0.15625 0
0.375 0.15625 0
0.3125 0.15625 0
0.34375 0.15625 0
0.3125 0.1875 0
0.34375 0.1875 0
0.34375 0.15625 0
0.375 0.15625 0
0.34375 0.1875 0
0.375 0.1875 0
0.25 0.1875 0
0.28125 0.1875 0
0.25 0.21875 0
0.28125 0.21875 0
0.28125 0.1875 0
0.3125 0.1875 0
0.28125 0.21875 0
0.3125 0.21875 0
0.25 0.21875 0
0.28125 0.21875 0
0.25 0.25 0
0.28125 0.25 0
0.28125 0.21875 0
0.3125 0.21875 0
0.28125 0.25 0
0.3125 0.25 0
0.3125 0.1875 0
0.34375 0.1875 0
0.3125 0.21875 0
0.34375 0.21875 0
0.34375 0.1875 0
0.375 0.1875 0
0.34375 0.21875 0
0.375 0.21875 0
0.3125 0.21875 0
0.34375 0.21875 0
0.3125 0.25 0
0.34375 0.25 0
0.34375 0.21875 0
0.375 0.21875 0
0.34375 0.25 0
0.375 0.25 0
0.375 0.125 0
0.40625 0.125 0
0.375 0.15625 0
0.40625 0.15625 0
0.40625 0.125 0
0.4375 0.125 0
0.40625 0.15625 0
0.4375 0.15625 0
0.375 0.15625 0
0.40625 0.15625 0
0.375 0.1875 0
0.40625 0.1875 0
0.40625 0.15625 0
0.4375 0.15625 0
0.40625 0.1875 0
0.4375 0.1875 0
0.4375 0.125 0
0.46875 0.125 0
0.4375 0.15625 0
0.46875 0.15625 0
0.46875 0.125 0
0.5 0.125 0
0.46875 0.15625 0
0.5 0.15625 0
0.4375 0.15625 0
0.46875 0.15625 0
0.4375 0.1875 0
0.46875 0.1875 0
0.46875 0.15625 0
0.5 0.15625 0
0.46875 0.1875 0
0.5 0.1875 0
0.375 0.1875 0
0.40625 0.1875 0
0.375 0.21875 0
0.40625 0.21875 0
0.40625 0.1875 0
0.4375 0.1875 0
0.40625 0.21875 0
0.4375 0.21875 0
0.375 0.21875 0
0.40625 0.21875 0
0.375 0.25 0
0.40625 0.25 0
0.40625 0.21875 0
0.4375 0.21875 0
0.40625 0.25 0
0.4375 0.25 0
0.4375 0.1875 0
0.46875 0.1875 0
0.4375 0.21875 0
0.46875 0.21875 0
0.46875 0.1875 0
0.5 0.1875 0
0.46875 0.21875 0
0.5 0.21875 0
0.4375 0.21875 0
0.46875 0.21875 0
0.4375 0.25 0
0.46875 0.25 0
0.46875 0.21875 0
0.5 0.21875 0
0.46875 0.25 0
0.5 0.25 0
0 0.25 0
0.03125 0.25 0
0 0.28125 0
0.03125 0.28125 0
0.03125 0.25 0
0.0625 0.25 0
0.03125 0.28125 0
0.0625 0.28125 0
0 0.28125 0
0.03125 0.28125 0
0 0.3125 0
0.03125 0.3125 0
0.03125 0.28125 0
0.0625 0.28125 0
0.03125 0.3125 0
0.0625 0.3125 0
0.0625 0.25 0
0.09375 0.25 0
0.0625 0.28125 0
0.09375 0.28125 0
0.09375 0.25 0
0.125 0.25 0
0.09375 0.28125 0
0.125 0.28125 0
0.0625 0.28125 0
0.09375 0.28125 0
0.0625 0.3125 0
0.09375 0.3125 0
0.09375 0.28125 0
0.125 0.28125 0
0.09375 0.3125 0
0.125 0.3125 0
0 0.3125 0
0.03125 0.3125 0
0 0.34375 0
0.03125 0.34375 0
0.03125 0.3125 0
0.0625 0.3125 0
0.03125 0.34375 0
0.0625 0.34375 0
0 0.34375 0
0.03125 0.34375 0
0 0.375 0
0.03125 0.375 0
0.03125 0.34375 0
0.0625 0.34375 0
0.03125 0.375 0
0.0625 0.375 0
0.0625 0.3125 0
0.09375 0.3125 0
0.0625 0.34375 0
0.09375 0.34375 0
0.09375 0.3125 0
0.125 0.3125 0
0.09375 0.34375 0
0.125 0.34375 0
0.0625 0.34375 0
0.09375 0.34375 0
0.0625 0.375 0
0.09375 0.375 0
0.09375 0.34375 0
0.125 0.34375 0
0.09375 0.375 0
0.125 0.375 0
0.125 0.25 0
0.15625 0.25 0
0.125 0.28125 0
0.15625 0.28125 0
0.15625 0.25 0
0.1875 0.25 0
0.15625 0.28125 0
0.1875 0.28125 0
0.125 0.28125 0
0.15625 0.28125 0
0.125 0.3125 0
0.15625 0.3125 0
0.15625 0.28125 0
0.1875 0.28125 0
0.15625 0.3125 0
0.1875 0.3125 0
0.1875 0.25 0
0.21875 0.25 0
0.1875 0.28125 0
0.21875 0.28125 0
0.21875 0.25 0
0.25 0.25 0
0.21875 0.28125 0
0.25 0.28125 0
0.1875 0.28125 0
0.21875 0.28125 0
0.1875 0.3125 0
0.21875 0.3125 0
0.21875 0.28125 0
0.25 0.28125 0
0.21875 0.3125 0
0.25 0.3125 0
0.125 0.3125 0
0.15625 0.3125 0
0.125 0.34375 0
0.15625 0.34375 0
0.15625 0.3125 0
0.1875 0.3125 0
0.15625 0.34375 0
0.1875 0.34375 0
0.125 0.34375 0
[...]
POINT_DATA 4096
SCALARS u_x double 1
LOOKUP_TABLE default
1.14306e-05 1.44311e-05 -5.78514e-05 -0.000181765 1.44311e-05 1.03756e-05 -0.000181765 -0.000726198 -5.78514e-05 -0.000181765 -0.000153069 -0.000371677 -0.000181765 -0.000726198 -0.000371677 -0.00131573 1.03756e-05 -5.86223e-06 -0.000726198 -0.00150456 -5.86223e-06 -2.43815e-05 -0.00150456 -0.00239271 -0.000726198 -0.00150456 -0.00131573 -0.00257122 -0.00150456 -0.00239271 -0.00257122 -0.00397891 -0.000153069 -0.000371677 -0.00017239 -0.000484439 -0.000371677 -0.00131573 -0.000484439 -0.00166472 -0.00017239 -0.000484439 -8.72874e-05 -0.00055246 -0.000484439 -0.00166472 -0.00055246 -0.00184784 -0.00131573 -0.00257122 -0.00166472 -0.00320124 -0.00257122 -0.00397891 -0.00320124 -0.00489887 -0.00166472 -0.00320124 -0.00184784 -0.00355029 -0.00320124 -0.00489887 -0.00355029 -0.0054139 -2.43815e-05 -4.22141e-05 -0.00239271 -0.00330099 -4.22141e-05 -5.8791e-05 -0.00330099 -0.00418465 -0.00239271 -0.00330099 -0.00397891 -0.0054159 -0.00330099 -0.00418465 -0.0054159 -0.00681651 -5.8791e-05 -7.41903e-05 -0.00418465 -0.00502191 -7.41903e-05 -8.84655e-05 -0.00502191 -0.00580062 -0.00418465 -0.00502191 -0.00681651 -0.00814536 -0.00502191 -0.00580062 -0.00814536 -0.0093816 -0.00397891 -0.0054159 -0.00489887 -0.00662338 -0.0054159 -0.00681651 -0.00662338 -0.00830226 -0.00489887 -0.00662338 -0.0054139 -0.00730023 -0.00662338 -0.00830226 -0.00730023 -0.00913298 -0.00681651 -0.00814536 -0.00830226 -0.00989496 -0.00814536 -0.0093816 -0.00989496 -0.0113764 -0.00830226 -0.00989496 -0.00913298 -0.0108702 -0.00989496 -0.0113764 -0.0108702 -0.0124852 -8.72874e-05 -0.00055246 0.000105999 -0.000611283 -0.00055246 -0.00184784 -0.000611283 -0.00195692 0.000105999 -0.000611283 0.000406675 -0.000681077 -0.000611283 -0.00195692 -0.000681077 -0.0020501 -0.00184784 -0.00355029 -0.00195692 -0.00377648 -0.00355029 -0.0054139 -0.00377648 -0.00575517 -0.00195692 -0.00377648 -0.0020501 -0.00398028 -0.00377648 -0.00575517 -0.00398028 -0.00606542 0.000406675 -0.000681077 0.000816055 -0.000770499 -0.000681077 -0.0020501 -0.000770499 -0.00215444 0.000816055 -0.000770499 0.00133825 -0.000883033 -0.000770499 -0.00215444 -0.000883033 -0.00228041 -0.0020501 -0.00398028 -0.00215444 -0.00421056 -0.00398028 -0.00606542 -0.00421056 -0.00641461 -0.00215444 -0.00421056 -0.00228041 -0.00448773 -0.00421056 -0.00641461 -0.00448773 -0.00683266 -0.0054139 -0.00730023 -0.00575517 -0.00775511 -0.00730023 -0.00913298 -0.00775511 -0.00969488 -0.00575517 -0.00775511 -0.00606542 -0.00817303 -0.00775511 -0.00969488 -0.00817303 -0.0102145 -0.00913298 -0.0108702 -0.00969488 -0.0115317 -0.0108702 -0.0124852 -0.0115317 -0.0132381 -0.00969488 -0.0115317 -0.0102145 -0.0121457 -0.0115317 -0.0132381 -0.0121457 -0.0139384 -0.00606542 -0.00817303 -0.00641461 -0.00864387 -0.00817303 -0.0102145 -0.00864387 -0.0108006 -0.00641461 -0.00864387 -0.00683266 -0.00920621 -0.00864387 -0.0108006 -0.00920621 -0.0114997 -0.0102145 -0.0121457 -0.0108006 -0.012839 -0.0121457 -0.0139384 -0.012839 -0.0147292 -0.0108006 -0.012839 -0.0114997 -0.0136648 -0.012839 -0.0147292 -0.0136648 -0.0156702 -8.84655e-05 -0.000101569 -0.00580062 -0.00651186 -0.000101569 -0.000113394 -0.00651186 -0.00714796 -0.00580062 -0.00651186 -0.0093816 -0.0105101 -0.00651186 -0.00714796 -0.0105101 -0.0115184 -0.000113394 -0.000123815 -0.00714796 -0.00770201 -0.000123815 -0.000132706 -0.00770201 -0.00816793 -0.00714796 -0.00770201 -0.0115184 -0.0123954 -0.00770201 -0.00816793 -0.0123954 -0.0131317 -0.0093816 -0.0105101 -0.0113764 -0.0127282 -0.0105101 -0.0115184 -0.0127282 -0.0139351 -0.0113764 -0.0127282 -0.0124852 -0.0139582 -0.0127282 -0.0139351 -0.0139582 -0.0152727 -0.0115184 -0.0123954 -0.0139351 -0.0149839 -0.0123954 -0.0131317 -0.0149839 -0.0158634 -0.0139351 -0.0149839 -0.0152727 -0.0164145 -0.0149839 -0.0158634 -0.0164145 -0.0173715 -0.000132706 -0.000139952 -0.00816793 -0.0085405 -0.000139952 -0.000145452 -0.0085405 -0.0088154 -0.00816793 -0.0085405 -0.0131317 -0.0137191 -0.0085405 -0.0088154 -0.0137191 -0.0141509 -0.000145452 -0.00014912 -0.0088154 -0.00898927 -0.00014912 -0.00015089 -0.00898927 -0.00905972 -0.0088154 -0.00898927 -0.0141509 -0.0144223 -0.00898927 -0.00905972 -0.0144223 -0.0145295 -0.0131317 -0.0137191 -0.0158634 -0.0165642 -0.0137191 -0.0141509 -0.0165642 -0.0170784 -0.0158634 -0.0165642 -0.0173715 -0.0181336 -0.0165642 -0.0170784 -0.0181336 -0.0186925 -0.0141509 -0.0144223 -0.0170784 -0.0174002 -0.0144223 -0.0145295 -0.0174002 -0.0175257 -0.0170784 -0.0174002 -0.0186925 -0.0190422 -0.0174002 -0.0175257 -0.0190422 -0.0191783 -0.0124852 -0.0139582 -0.0132381 -0.0147936 -0.0139582 -0.0152727 -0.0147936 -0.0161811 -0.0132381 -0.0147936 -0.0139384 -0.0155714 -0.0147936 -0.0161811 -0.0155714 -0.0170274 -0.0152727 -0.0164145 -0.0161811 -0.017386 -0.0164145 -0.0173715 -0.017386 -0.0183957 -0.0161811 -0.017386 -0.0170274 -0.0182914 -0.017386 -0.0183957 -0.0182914 -0.0193508 -0.0139384 -0.0155714 -0.0147292 -0.0164498 -0.0155714 -0.0170274 -0.0164498 -0.0179827 -0.0147292 -0.0164498 -0.0156702 -0.0174936 -0.0164498 -0.0179827 -0.0174936 -0.0191168 -0.0170274 -0.0182914 -0.0179827 -0.0193131 -0.0182914 -0.0193508 -0.0193131 -0.0204281 -0.0179827 -0.0193131 -0.0191168 -0.0205246 -0.0193131 -0.0204281 -0.0205246 -0.0217045 -0.0173715 -0.0181336 -0.0183957 -0.0192 -0.0181336 -0.0186925 -0.0192 -0.0197903 -0.0183957 -0.0192 -0.0193508 -0.020195 -0.0192 -0.0197903 -0.020195 -0.0208157 -0.0186925 -0.0190422 -0.0197903 -0.0201604 -0.0190422 -0.0191783 -0.0201604 -0.0203058 -0.0197903 -0.0201604 -0.0208157 -0.0212064 -0.0201604 -0.0203058 -0.0212064 -0.0213624 -0.0193508 -0.020195 -0.0204281 -0.0213174 -0.020195 -0.0208157 -0.0213174 -0.0219725 -0.0204281 -0.0213174 -0.0217045 -0.0226462 -0.0213174 -0.0219725 -0.0226462 -0.0233417 -0.0208157 -0.0212064 -0.0219725 -0.022387 -0.0212064 -0.0213624 -0.022387 -0.0225562 -0.0219725 -0.022387 -0.0233417 -0.0237844 -0.022387 -0.0225562 -0.0237844 -0.0239696 0.00133825 -0.000883033 0.00197974 -0.0010207 -0.000883033 -0.00228041 -0.0010207 -0.00243248 0.00197974 -0.0010207 0.00274907 -0.00118559 -0.0010207 -0.00243248 -0.00118559 -0.00261385 -0.00228041 -0.00448773 -0.00243248 -0.00482123 -0.00448773 -0.00683266 -0.00482123 -0.00733379 -0.00243248 -0.00482123 -0.00261385 -0.00521806 -0.00482123 -0.00733379 -0.00521806 -0.00792849 0.00274907 -0.00118559 0.00365672 -0.00138028 -0.00118559 -0.00261385 -0.00138028 -0.00282826 0.00365672 -0.00138028 0.00471531 -0.00160807 -0.00138028 -0.00282826 -0.00160807 -0.00308059 -0.00261385 -0.00521806 -0.00282826 -0.00568601 -0.00521806 -0.00792849 -0.00568601 -0.00862817 -0.00282826 -0.00568601 -0.00308059 -0.00623499 -0.00568601 -0.00862817 -0.00623499 -0.00944709 -0.00683266 -0.00920621 -0.00733379 -0.00987856 -0.00920621 -0.0114997 -0.00987856 -0.0123336 -0.00733379 -0.00987856 -0.00792849 -0.0106745 -0.00987856 -0.0123336 -0.0106745 -0.0133186 -0.0114997 -0.0136648 -0.0123336 -0.0146481 -0.0136648 -0.0156702 -0.0146481 -0.0167887 -0.0123336 -0.0146481 -0.0133186 -0.0158068 -0.0146481 -0.0167887 -0.0158068 -0.0181035 -0.00792849 -0.0106745 -0.00862817 -0.0116086 -0.0106745 -0.0133186 -0.0116086 -0.0144715 -0.00862817 -0.0116086 -0.00944709 -0.0126988 -0.0116086 -0.0144715 -0.0126988 -0.0158128 -0.0133186 -0.0158068 -0.0144715 -0.0171592 -0.0158068 -0.0181035 -0.0171592 -0.0196338 -0.0144715 -0.0171592 -0.0158128 -0.0187274 -0.0171592 -0.0196338 -0.0187274 -0.0214021 0.00471531 -0.00160807 0.00593982 -0.00187309 -0.00160807 -0.00308059 -0.00187309 -0.00337731 0.00593982 -0.00187309 0.00734795 -0.00218053 -0.00187309 -0.00337731 -0.00218053 -0.00372703 -0.00308059 -0.00623499 -0.00337731 -0.00687782 -0.00623499 -0.00944709 -0.00687782 -0.0104035 -0.00337731 -0.00687782 -0.00372703 -0.00763137 -0.00687782 -0.0104035 -0.00763137 -0.0115213 0.00734795 -0.00218053 0.00896066 -0.002537 -0.00218053 -0.00372703 -0.002537 -0.00414136 0.00896066 -0.002537 0.0108028 -0.00295102 -0.002537 -0.00414136 -0.00295102 -0.00463617 -0.00372703 -0.00763137 -0.00414136 -0.00851799 -0.00763137 -0.0115213 -0.00851799 -0.0128315 -0.00414136 -0.00851799 -0.00463617 -0.00956773 -0.00851799 -0.0128315 -0.00956773 -0.0143758 -0.00944709 -0.0126988 -0.0104035 -0.0139679 -0.0126988 -0.0158128 -0.0139679 -0.0173683 -0.0104035 -0.0139679 -0.0115213 -0.015445 -0.0139679 -0.0173683 -0.015445 -0.0191704 -0.0158128 -0.0187274 -0.0173683 -0.0205386 -0.0187274 -0.0214021 -0.0205386 -0.0234355 -0.0173683 -0.0205386 -0.0191704 -0.0226263 -0.0205386 -0.0234355 -0.0226263 -0.0257671 -0.0115213 -0.015445 -0.0128315 -0.0171679 -0.015445 -0.0191704 -0.0171679 -0.0212606 -0.0128315 -0.0171679 -0.0143758 -0.0191861 -0.0171679 -0.0212606 -0.0191861 -0.023692 -0.0191704 -0.0226263 -0.0212606 -0.0250327 -0.0226263 -0.0257671 -0.0250327 -0.0284373 -0.0212606 -0.0250327 -0.023692 -0.0278109 -0.0250327 -0.0284373 -0.0278109 -0.0314959 -0.0156702 -0.0174936 -0.0167887 -0.0187322 -0.0174936 -0.0191168 -0.0187322 -0.02046 -0.0167887 -0.0187322 -0.0181035 -0.0201848 -0.0187322 -0.02046 -0.0201848 -0.0220321 -0.0191168 -0.0205246 -0.02046 -0.0219574 -0.0205246 -0.0217045 -0.0219574 -0.023212 -0.02046 -0.0219574 -0.0220321 -0.0236309 -0.0219574 -0.023212 -0.0236309 -0.0249699 -0.0181035 -0.0201848 -0.0196338 -0.0218707 -0.0201848 -0.0220321 -0.0218707 -0.0238516 -0.0196338 -0.0218707 -0.0214021 -0.0238119 -0.0218707 -0.0238516 -0.0238119 -0.0259398 -0.0220321 -0.0236309 -0.0238516 -0.0255632 -0.0236309 -0.0249699 -0.0255632 -0.0269953 -0.0238516 -0.0255632 -0.0259398 -0.027774 -0.0255632 -0.0269953 -0.027774 -0.0293066 -0.0217045 -0.0226462 -0.023212 -0.0242142 -0.0226462 -0.0233417 -0.0242142 -0.0249561 -0.023212 -0.0242142 -0.0249699 -0.0260401 -0.0242142 -0.0249561 -0.0260401 -0.0268346 -0.0233417 -0.0237844 -0.0249561 -0.0254316 -0.0237844 -0.0239696 -0.0254316 -0.025636 -0.0249561 -0.0254316 -0.0268346 -0.0273476 -0.0254316 -0.025636 -0.0273476 -0.0275746 -0.0249699 -0.0260401 -0.0269953 -0.0281405 -0.0260401 -0.0268346 -0.0281405 -0.028993 -0.0269953 -0.0281405 -0.0293066 -0.0305323 -0.0281405 -0.028993 -0.0305323 -0.0314473 -0.0268346 -0.0273476 -0.028993 -0.029548 -0.0273476 -0.0275746 -0.029548 -0.0298014 -0.028993 -0.029548 -0.0314473 -0.0320485 -0.029548 -0.0298014 -0.0320485 -0.0323323 -0.0214021 -0.0238119 -0.0234355 -0.0260347 -0.0238119 -0.0259398 -0.0260347 -0.0283209 -0.0234355 -0.0260347 -0.0257671 -0.0285699 -0.0260347 -0.0283209 -0.0285699 -0.0310229 -0.0259398 -0.027774 -0.0283209 -0.0302853 -0.027774 -0.0293066 -0.0302853 -0.0319234 -0.0283209 -0.0302853 -0.0310229 -0.0331218 -0.0302853 -0.0319234 -0.0331218 -0.034867 -0.0257671 -0.0285699 -0.0284373 -0.0314546 -0.0285699 -0.0310229 -0.0314546 -0.0340782 -0.0284373 -0.0314546 -0.0314959 -0.0347327 -0.0314546 -0.0340782 -0.0347327 -0.0375236 -0.0310229 -0.0331218 -0.0340782 -0.0363106 -0.0331218 -0.034867 -0.0363106 -0.0381596 -0.0340782 -0.0363106 -0.0375236 -0.0398813 -0.0363106 -0.0381596 -0.0398813 -0.0418238 -0.0293066 -0.0305323 -0.0319234 -0.0332332 -0.0305323 -0.0314473 -0.0332332 -0.0342139 -0.0319234 -0.0332332 -0.034867 -0.0362615 -0.0332332 -0.0342139 -0.0362615 -0.0373087 -0.0314473 -0.0320485 -0.0342139 -0.0348645 -0.0320485 -0.0323323 -0.0348645 -0.0351828 -0.0342139 -0.0348645 -0.0373087 -0.038011 -0.0348645 -0.0351828 -0.038011 -0.0383678 -0.034867 -0.0362615 -0.0381596 -0.0396351 -0.0362615 -0.0373087 -0.0396351 -0.0407465 -0.0381596 -0.0396351 -0.0418238 -0.0433705 -0.0396351 -0.0407465 -0.0433705 -0.044539 -0.0373087 -0.038011 -0.0407465 -0.0415005 -0.038011 -0.0383678 -0.0415005 -0.0418996 -0.0407465 -0.0415005 -0.044539 -0.0453422 -0.0415005 -0.0418996 -0.0453422 -0.0457865 -0.00015089 -0.000150712 -0.00905972 -0.00902539 -0.000150712 -0.000148555 -0.00902539 -0.00888594 -0.00905972 -0.00902539 -0.0145295 -0.0144706 -0.00902539 -0.00888594 -0.0144706 -0.0142454 -0.000148555 -0.000144414 -0.00888594 -0.00864215 -0.000144414 -0.00013831 -0.00864215 -0.00829591 -0.00888594 -0.00864215 -0.0142454 -0.0138551 -0.00864215 -0.00829591 -0.0138551 -0.0133031 -0.0145295 -0.0144706 -0.0175257 -0.0174525 -0.0144706 -0.0142454 -0.0174525 -0.0171804 -0.0175257 -0.0174525 -0.0191783 -0.0190985 -0.0174525 -0.0171804 -0.0190985 -0.0188025 -0.0142454 -0.0138551 -0.0171804 -0.0167112 -0.0138551 -0.0133031 -0.0167112 -0.0160486 -0.0171804 -0.0167112 -0.0188025 -0.0182921 -0.0167112 -0.0160486 -0.0182921 -0.0175712 -0.00013831 -0.000130285 -0.00829591 -0.00785027 -0.000130285 -0.000120407 -0.00785027 -0.00730947 -0.00829591 -0.00785027 -0.0133031 -0.0125941 -0.00785027 -0.00730947 -0.0125941 -0.0117349 -0.000120407 -0.000108774 -0.00730947 -0.00667896 -0.000108774 -9.55043e-05 -0.00667896 -0.00596533 -0.00730947 -0.00667896 -0.0117349 -0.0107343 -0.00667896 -0.00596533 -0.0107343 -0.00960276 -0.0133031 -0.0125941 -0.0160486 -0.0151986 -0.0125941 -0.0117349 -0.0151986 -0.0141691 -0.0160486 -0.0151986 -0.0175712 -0.016646 -0.0151986 -0.0141691 -0.016646 -0.0155251 -0.0117349 -0.0107343 -0.0141691 -0.0129704 -0.0107343 -0.00960276 -0.0129704 -0.0116153 -0.0141691 -0.0129704 -0.0155251 -0.0142195 -0.0129704 -0.0116153 -0.0142195 -0.0127428 -0.0191783 -0.0190985 -0.0203058 -0.020224 -0.0190985 -0.0188025 -0.020224 -0.0199146 -0.0203058 -0.020224 -0.0213624 -0.0212813 -0.020224 -0.0199146 -0.0212813 -0.0209621 -0.0188025 -0.0182921 -0.0199146 -0.0193793 -0.0182921 -0.0175712 -0.0193793 -0.0186217 -0.0199146 -0.0193793 -0.0209621 -0.0204062 -0.0193793 -0.0186217 -0.0204062 -0.0196171 -0.0213624 -0.0212813 -0.0225562 -0.0224772 -0.0212813 -0.0209621 -0.0224772 -0.0221489 -0.0225562 -0.0224772 -0.0239696 -0.0238941 -0.0224772 -0.0221489 -0.0238941 -0.0235563 -0.0209621 -0.0204062 -0.0221489 -0.021572 -0.0204062 -0.0196171 -0.021572 -0.0207494 -0.0221489 -0.021572 -0.0235563 -0.0229564 -0.021572 -0.0207494 -0.0229564 -0.0220963 -0.0175712 -0.016646 -0.0186217 -0.017648 -0.016646 -0.0155251 -0.017648 -0.0164669 -0.0186217 -0.017648 -0.0196171 -0.0186006 -0.017648 -0.0164669 -0.0186006 -0.0173649 -0.0155251 -0.0142195 -0.0164669 -0.0150896 -0.0142195 -0.0127428 -0.0150896 -0.01353 -0.0164669 -0.0150896 -0.0173649 -0.0159212 -0.0150896 -0.01353 -0.0159212 -0.0142837 -0.0196171 -0.0186006 -0.0207494 -0.0196864 -0.0186006 -0.0173649 -0.0196864 -0.0183907 -0.0207494 -0.0196864 -0.0220963 -0.0209804 -0.0196864 -0.0183907 -0.0209804 -0.0196157 -0.0173649 -0.0159212 -0.0183907 -0.0168731 -0.0159212 -0.0142837 -0.0168731 -0.0151477 -0.0183907 -0.0168731 -0.0196157 -0.0180122 -0.0168731 -0.0151477 -0.0180122 -0.0161836 -9.55043e-05 -8.06867e-05 -0.00596533 -0.00517653 -8.06867e-05 -6.45258e-05 -0.00517653 -0.00432137 -0.00596533 -0.00517653 -0.00960276 -0.00835314 -0.00517653 -0.00432137 -0.00835314 -0.00700049 -6.45258e-05 -4.64318e-05 -0.00432137 -0.00341734 -4.64318e-05 -2.9377e-05 -0.00341734 -0.00246699 -0.00432137 -0.00341734 -0.00700049 -0.00557137 -0.00341734 -0.00246699 -0.00557137 -0.00407924 -0.00960276 -0.00835314 -0.0116153 -0.0101193 -0.00835314 -0.00700049 -0.0101193 -0.0085006 -0.0116153 -0.0101193 -0.0127428 -0.0111118 -0.0101193 -0.0085006 -0.0111118 -0.00934645 -0.00700049 -0.00557137 -0.0085006 -0.0067902 -0.00557137 -0.00407924 -0.0067902 -0.00500735 -0.0085006 -0.0067902 -0.00934645 -0.00747937 -0.0067902 -0.00500735 -0.00747937 -0.00553197 -2.9377e-05 -1.01561e-05 -0.00246699 -0.00162777 -1.01561e-05 7.17399e-05 -0.00162777 -0.000356135 -0.00246699 -0.00162777 -0.00407924 -0.00272192 -0.00162777 -0.000356135 -0.00272192 -0.000914553 7.17399e-05 -4.16449e-05 -0.000356135 -0.00204813 -4.16449e-05 0.0157433 -0.00204813 0.0140045 -0.000356135 -0.00204813 -0.000914553 -0.00233064 -0.00204813 0.0140045 -0.00233064 0.014744 -0.00407924 -0.00272192 -0.00500735 -0.00335978 -0.00272192 -0.000914553 -0.00335978 -0.00126209 -0.00500735 -0.00335978 -0.00553197 -0.00371604 -0.00335978 -0.00126209 -0.00371604 -0.00145057 -0.000914553 -0.00233064 -0.00126209 -0.0024879 -0.00233064 0.014744 -0.0024879 0.0146827 -0.00126209 -0.0024879 -0.00145057 -0.00255905 -0.0024879 0.0146827 -0.00255905 0.0147608 -0.0127428 -0.0111118 -0.01353 -0.0118056 -0.0111118 -0.00934645 -0.0118056 -0.00993694 -0.01353 -0.0118056 -0.0142837 -0.01247 -0.0118056 -0.00993694 -0.01247 -0.0105015 -0.00934645 -0.00747937 -0.00993694 -0.00795795 -0.00747937 -0.00553197 -0.00795795 -0.00589119 -0.00993694 -0.00795795 -0.0105015 -0.00841319 -0.00795795 -0.00589119 -0.00841319 -0.00622956 -0.0142837 -0.01247 -0.0151477 -0.0132325 -0.01247 -0.0105015 -0.0132325 -0.0111495 -0.0151477 -0.0132325 -0.0161836 -0.0141483 -0.0132325 -0.0111495 -0.0141483 -0.011929 -0.0105015 -0.00841319 -0.0111495 -0.00893553 -0.00841319 -0.00622956 -0.00893553 -0.00661764 -0.0111495 -0.00893553 -0.011929 -0.00956504 -0.00893553 -0.00661764 -0.00956504 -0.00708656 -0.00553197 -0.00371604 -0.00589119 -0.00395389 -0.00371604 -0.00145057 -0.00395389 -0.00156423 -0.00589119 -0.00395389 -0.00622956 -0.00417591 -0.00395389 -0.00156423 -0.00417591 -0.00166594 -0.00145057 -0.00255905 -0.00156423 -0.00261826 -0.00255905 0.0147608 -0.00261826 0.0149644 -0.00156423 -0.00261826 -0.00166594 -0.00269182 -0.00261826 0.0149644 -0.00269182 0.0152738 -0.00622956 -0.00417591 -0.00661764 -0.00443172 -0.00417591 -0.00166594 -0.00443172 -0.00178287 -0.00661764 -0.00443172 -0.00708656 -0.0047425 -0.00443172 -0.00178287 -0.0047425 -0.0019257 -0.00166594 -0.00269182 -0.00178287 -0.0027866 -0.00269182 0.0152738 -0.0027866 0.0156945 -0.00178287 -0.0027866 -0.0019257 -0.00290628 -0.0027866 0.0156945 -0.00290628 0.0162303 -0.0239696 -0.0238941 -0.025636 -0.0255658 -0.0238941 -0.0235563 -0.0255658 -0.0252188 -0.025636 -0.0255658 -0.0275746 -0.0275119 -0.0255658 -0.0252188 -0.0275119 -0.0271565 -0.0235563 -0.0229564 -0.0252188 -0.024594 -0.0229564 -0.0220963 -0.024594 -0.0236925 -0.0252188 -0.024594 -0.0271565 -0.0265062 -0.024594 -0.0236925 -0.0265062 -0.0255604 -0.0275746 -0.0275119 -0.0298014 -0.0297493 -0.0275119 -0.0271565 -0.0297493 -0.0293875 -0.0298014 -0.0297493 -0.0323323 -0.0322946 -0.0297493 -0.0293875 -0.0322946 -0.0319303 -0.0271565 -0.0265062 -0.0293875 -0.0287126 -0.0265062 -0.0255604 -0.0287126 -0.0277215 -0.0293875 -0.0287126 -0.0319303 -0.0312338 -0.0287126 -0.0277215 -0.0312338 -0.030199 -0.0220963 -0.0209804 -0.0236925 -0.0225171 -0.0209804 -0.0196157 -0.0225171 -0.0210737 -0.0236925 -0.0225171 -0.0255604 -0.0243201 -0.0225171 -0.0210737 -0.0243201 -0.0227891 -0.0196157 -0.0180122 -0.0210737 -0.0193711 -0.0180122 -0.0161836 -0.0193711 -0.0174226 -0.0210737 -0.0193711 -0.0227891 -0.0209748 -0.0193711 -0.0174226 -0.0209748 -0.018889 -0.0255604 -0.0243201 -0.0277215 -0.0264126 -0.0243201 -0.0227891 -0.0264126 -0.0247871 -0.0277215 -0.0264126 -0.030199 -0.0288209 -0.0264126 -0.0247871 -0.0288209 -0.0270964 -0.0227891 -0.0209748 -0.0247871 -0.0228496 -0.0209748 -0.018889 -0.0228496 -0.0206097 -0.0247871 -0.0228496 -0.0270964 -0.0250262 -0.0228496 -0.0206097 -0.0250262 -0.0226167 -0.0323323 -0.0322946 -0.0351828 -0.0351647 -0.0322946 -0.0319303 -0.0351647 -0.0348037 -0.0351828 -0.0351647 -0.0383678 -0.0383755 -0.0351647 -0.0348037 -0.0383755 -0.0380262 -0.0319303 -0.0312338 -0.0348037 -0.0340915 -0.0312338 -0.030199 -0.0340915 -0.0330184 -0.0348037 -0.0340915 -0.0380262 -0.0373083 -0.0340915 -0.0330184 -0.0373083 -0.0362072 -0.0383678 -0.0383755 -0.0418996 -0.0419407 -0.0383755 -0.0380262 -0.0419407 -0.0416147 -0.0418996 -0.0419407 -0.0457865 -0.0458702 -0.0419407 -0.0416147 -0.0458702 -0.045583 -0.0380262 -0.0373083 -0.0416147 -0.0409062 -0.0373083 -0.0362072 -0.0409062 -0.0397939 -0.0416147 -0.0409062 -0.045583 -0.0449048 -0.0409062 -0.0397939 -0.0449048 -0.0438071 -0.030199 -0.0288209 -0.0330184 -0.0315743 -0.0288209 -0.0270964 -0.0315743 -0.0297505 -0.0330184 -0.0315743 -0.0362072 -0.0347062 -0.0315743 -0.0297505 -0.0347062 -0.0327886 -0.0270964 -0.0250262 -0.0297505 -0.0275419 -0.0250262 -0.0226167 -0.0275419 -0.0249494 -0.0297505 -0.0275419 -0.0327886 -0.030441 -0.0275419 -0.0249494 -0.030441 -0.0276564 -0.0362072 -0.0347062 -0.0397939 -0.0382528 -0.03470