# vtk DataFile Version 3.0
#This file was generated by the deal.II library on 2026/1/5 at 14:19:32
ASCII
DATASET UNSTRUCTURED_GRID

POINTS 4096 double
0 0 0
0.03125 0 0
0 0.03125 0
0.03125 0.03125 0
0.03125 0 0
0.0625 0 0
0.03125 0.03125 0
0.0625 0.03125 0
0 0.03125 0
0.03125 0.03125 0
0 0.0625 0
0.03125 0.0625 0
0.03125 0.03125 0
0.0625 0.03125 0
0.03125 0.0625 0
0.0625 0.0625 0
0.0625 0 0
0.09375 0 0
0.0625 0.03125 0
0.09375 0.03125 0
0.09375 0 0
0.125 0 0
0.09375 0.03125 0
0.125 0.03125 0
0.0625 0.03125 0
0.09375 0.03125 0
0.0625 0.0625 0
0.09375 0.0625 0
0.09375 0.03125 0
0.125 0.03125 0
0.09375 0.0625 0
0.125 0.0625 0
0 0.0625 0
0.03125 0.0625 0
0 0.09375 0
0.03125 0.09375 0
0.03125 0.0625 0
0.0625 0.0625 0
0.03125 0.09375 0
0.0625 0.09375 0
0 0.09375 0
0.03125 0.09375 0
0 0.125 0
0.03125 0.125 0
0.03125 0.09375 0
0.0625 0.09375 0
0.03125 0.125 0
0.0625 0.125 0
0.0625 0.0625 0
0.09375 0.0625 0
0.0625 0.09375 0
0.09375 0.09375 0
0.09375 0.0625 0
0.125 0.0625 0
0.09375 0.09375 0
0.125 0.09375 0
0.0625 0.09375 0
0.09375 0.09375 0
0.0625 0.125 0
0.09375 0.125 0
0.09375 0.09375 0
0.125 0.09375 0
0.09375 0.125 0
0.125 0.125 0
0.125 0 0
0.15625 0 0
0.125 0.03125 0
0.15625 0.03125 0
0.15625 0 0
0.1875 0 0
0.15625 0.03125 0
0.1875 0.03125 0
0.125 0.03125 0
0.15625 0.03125 0
0.125 0.0625 0
0.15625 0.0625 0
0.15625 0.03125 0
0.1875 0.03125 0
0.15625 0.0625 0
0.1875 0.0625 0
0.1875 0 0
0.21875 0 0
0.1875 0.03125 0
0.21875 0.03125 0
0.21875 0 0
0.25 0 0
0.21875 0.03125 0
0.25 0.03125 0
0.1875 0.03125 0
0.21875 0.03125 0
0.1875 0.0625 0
0.21875 0.0625 0
0.21875 0.03125 0
0.25 0.03125 0
0.21875 0.0625 0
0.25 0.0625 0
0.125 0.0625 0
0.15625 0.0625 0
0.125 0.09375 0
0.15625 0.09375 0
0.15625 0.0625 0
0.1875 0.0625 0
0.15625 0.09375 0
0.1875 0.09375 0
0.125 0.09375 0
0.15625 0.09375 0
0.125 0.125 0
0.15625 0.125 0
0.15625 0.09375 0
0.1875 0.09375 0
0.15625 0.125 0
0.1875 0.125 0
0.1875 0.0625 0
0.21875 0.0625 0
0.1875 0.09375 0
0.21875 0.09375 0
0.21875 0.0625 0
0.25 0.0625 0
0.21875 0.09375 0
0.25 0.09375 0
0.1875 0.09375 0
0.21875 0.09375 0
0.1875 0.125 0
0.21875 0.125 0
0.21875 0.09375 0
0.25 0.09375 0
0.21875 0.125 0
0.25 0.125 0
0 0.125 0
0.03125 0.125 0
0 0.15625 0
0.03125 0.15625 0
0.03125 0.125 0
0.0625 0.125 0
0.03125 0.15625 0
0.0625 0.15625 0
0 0.15625 0
0.03125 0.15625 0
0 0.1875 0
0.03125 0.1875 0
0.03125 0.15625 0
0.0625 0.15625 0
0.03125 0.1875 0
0.0625 0.1875 0
0.0625 0.125 0
0.09375 0.125 0
0.0625 0.15625 0
0.09375 0.15625 0
0.09375 0.125 0
0.125 0.125 0
0.09375 0.15625 0
0.125 0.15625 0
0.0625 0.15625 0
0.09375 0.15625 0
0.0625 0.1875 0
0.09375 0.1875 0
0.09375 0.15625 0
0.125 0.15625 0
0.09375 0.1875 0
0.125 0.1875 0
0 0.1875 0
0.03125 0.1875 0
0 0.21875 0
0.03125 0.21875 0
0.03125 0.1875 0
0.0625 0.1875 0
0.03125 0.21875 0
0.0625 0.21875 0
0 0.21875 0
0.03125 0.21875 0
0 0.25 0
0.03125 0.25 0
0.03125 0.21875 0
0.0625 0.21875 0
0.03125 0.25 0
0.0625 0.25 0
0.0625 0.1875 0
0.09375 0.1875 0
0.0625 0.21875 0
0.09375 0.21875 0
0.09375 0.1875 0
0.125 0.1875 0
0.09375 0.21875 0
0.125 0.21875 0
0.0625 0.21875 0
0.09375 0.21875 0
0.0625 0.25 0
0.09375 0.25 0
0.09375 0.21875 0
0.125 0.21875 0
0.09375 0.25 0
0.125 0.25 0
0.125 0.125 0
0.15625 0.125 0
0.125 0.15625 0
0.15625 0.15625 0
0.15625 0.125 0
0.1875 0.125 0
0.15625 0.15625 0
0.1875 0.15625 0
0.125 0.15625 0
0.15625 0.15625 0
0.125 0.1875 0
0.15625 0.1875 0
0.15625 0.15625 0
0.1875 0.15625 0
0.15625 0.1875 0
0.1875 0.1875 0
0.1875 0.125 0
0.21875 0.125 0
0.1875 0.15625 0
0.21875 0.15625 0
0.21875 0.125 0
0.25 0.125 0
0.21875 0.15625 0
0.25 0.15625 0
0.1875 0.15625 0
0.21875 0.15625 0
0.1875 0.1875 0
0.21875 0.1875 0
0.21875 0.15625 0
0.25 0.15625 0
0.21875 0.1875 0
0.25 0.1875 0
0.125 0.1875 0
0.15625 0.1875 0
0.125 0.21875 0
0.15625 0.21875 0
0.15625 0.1875 0
0.1875 0.1875 0
0.15625 0.21875 0
0.1875 0.21875 0
0.125 0.21875 0
0.15625 0.21875 0
0.125 0.25 0
0.15625 0.25 0
0.15625 0.21875 0
0.1875 0.21875 0
0.15625 0.25 0
0.1875 0.25 0
0.1875 0.1875 0
0.21875 0.1875 0
0.1875 0.21875 0
0.21875 0.21875 0
0.21875 0.1875 0
0.25 0.1875 0
0.21875 0.21875 0
0.25 0.21875 0
0.1875 0.21875 0
0.21875 0.21875 0
0.1875 0.25 0
0.21875 0.25 0
0.21875 0.21875 0
0.25 0.21875 0
0.21875 0.25 0
0.25 0.25 0
0.25 0 0
0.28125 0 0
0.25 0.03125 0
0.28125 0.03125 0
0.28125 0 0
0.3125 0 0
0.28125 0.03125 0
0.3125 0.03125 0
0.25 0.03125 0
0.28125 0.03125 0
0.25 0.0625 0
0.28125 0.0625 0
0.28125 0.03125 0
0.3125 0.03125 0
0.28125 0.0625 0
0.3125 0.0625 0
0.3125 0 0
0.34375 0 0
0.3125 0.03125 0
0.34375 0.03125 0
0.34375 0 0
0.375 0 0
0.34375 0.03125 0
0.375 0.03125 0
0.3125 0.03125 0
0.34375 0.03125 0
0.3125 0.0625 0
0.34375 0.0625 0
0.34375 0.03125 0
0.375 0.03125 0
0.34375 0.0625 0
0.375 0.0625 0
0.25 0.0625 0
0.28125 0.0625 0
0.25 0.09375 0
0.28125 0.09375 0
0.28125 0.0625 0
0.3125 0.0625 0
0.28125 0.09375 0
0.3125 0.09375 0
0.25 0.09375 0
0.28125 0.09375 0
0.25 0.125 0
0.28125 0.125 0
0.28125 0.09375 0
0.3125 0.09375 0
0.28125 0.125 0
0.3125 0.125 0
0.3125 0.0625 0
0.34375 0.0625 0
0.3125 0.09375 0
0.34375 0.09375 0
0.34375 0.0625 0
0.375 0.0625 0
0.34375 0.09375 0
0.375 0.09375 0
0.3125 0.09375 0
0.34375 0.09375 0
0.3125 0.125 0
0.34375 0.125 0
0.34375 0.09375 0
0.375 0.09375 0
0.34375 0.125 0
0.375 0.125 0
0.375 0 0
0.40625 0 0
0.375 0.03125 0
0.40625 0.03125 0
0.40625 0 0
0.4375 0 0
0.40625 0.03125 0
0.4375 0.03125 0
0.375 0.03125 0
0.40625 0.03125 0
0.375 0.0625 0
0.40625 0.0625 0
0.40625 0.03125 0
0.4375 0.03125 0
0.40625 0.0625 0
0.4375 0.0625 0
0.4375 0 0
0.46875 0 0
0.4375 0.03125 0
0.46875 0.03125 0
0.46875 0 0
0.5 0 0
0.46875 0.03125 0
0.5 0.03125 0
0.4375 0.03125 0
0.46875 0.03125 0
0.4375 0.0625 0
0.46875 0.0625 0
0.46875 0.03125 0
0.5 0.03125 0
0.46875 0.0625 0
0.5 0.0625 0
0.375 0.0625 0
0.40625 0.0625 0
0.375 0.09375 0
0.40625 0.09375 0
0.40625 0.0625 0
0.4375 0.0625 0
0.40625 0.09375 0
0.4375 0.09375 0
0.375 0.09375 0
0.40625 0.09375 0
0.375 0.125 0
0.40625 0.125 0
0.40625 0.09375 0
0.4375 0.09375 0
0.40625 0.125 0
0.4375 0.125 0
0.4375 0.0625 0
0.46875 0.0625 0
0.4375 0.09375 0
0.46875 0.09375 0
0.46875 0.0625 0
0.5 0.0625 0
0.46875 0.09375 0
0.5 0.09375 0
0.4375 0.09375 0
0.46875 0.09375 0
0.4375 0.125 0
0.46875 0.125 0
0.46875 0.09375 0
0.5 0.09375 0
0.46875 0.125 0
0.5 0.125 0
0.25 0.125 0
0.28125 0.125 0
0.25 0.15625 0
0.28125 0.15625 0
0.28125 0.125 0
0.3125 0.125 0
0.28125 0.15625 0
0.3125 0.15625 0
0.25 0.15625 0
0.28125 0.15625 0
0.25 0.1875 0
0.28125 0.1875 0
0.28125 0.15625 0
0.3125 0.15625 0
0.28125 0.1875 0
0.3125 0.1875 0
0.3125 0.125 0
0.34375 0.125 0
0.3125 0.15625 0
0.34375 0.15625 0
0.34375 0.125 0
0.375 0.125 0
0.34375 0.15625 0
0.375 0.15625 0
0.3125 0.15625 0
0.34375 0.15625 0
0.3125 0.1875 0
0.34375 0.1875 0
0.34375 0.15625 0
0.375 0.15625 0
0.34375 0.1875 0
0.375 0.1875 0
0.25 0.1875 0
0.28125 0.1875 0
0.25 0.21875 0
0.28125 0.21875 0
0.28125 0.1875 0
0.3125 0.1875 0
0.28125 0.21875 0
0.3125 0.21875 0
0.25 0.21875 0
0.28125 0.21875 0
0.25 0.25 0
0.28125 0.25 0
0.28125 0.21875 0
0.3125 0.21875 0
0.28125 0.25 0
0.3125 0.25 0
0.3125 0.1875 0
0.34375 0.1875 0
0.3125 0.21875 0
0.34375 0.21875 0
0.34375 0.1875 0
0.375 0.1875 0
0.34375 0.21875 0
0.375 0.21875 0
0.3125 0.21875 0
0.34375 0.21875 0
0.3125 0.25 0
0.34375 0.25 0
0.34375 0.21875 0
0.375 0.21875 0
0.34375 0.25 0
0.375 0.25 0
0.375 0.125 0
0.40625 0.125 0
0.375 0.15625 0
0.40625 0.15625 0
0.40625 0.125 0
0.4375 0.125 0
0.40625 0.15625 0
0.4375 0.15625 0
0.375 0.15625 0
0.40625 0.15625 0
0.375 0.1875 0
0.40625 0.1875 0
0.40625 0.15625 0
0.4375 0.15625 0
0.40625 0.1875 0
0.4375 0.1875 0
0.4375 0.125 0
0.46875 0.125 0
0.4375 0.15625 0
0.46875 0.15625 0
0.46875 0.125 0
0.5 0.125 0
0.46875 0.15625 0
0.5 0.15625 0
0.4375 0.15625 0
0.46875 0.15625 0
0.4375 0.1875 0
0.46875 0.1875 0
0.46875 0.15625 0
0.5 0.15625 0
0.46875 0.1875 0
0.5 0.1875 0
0.375 0.1875 0
0.40625 0.1875 0
0.375 0.21875 0
0.40625 0.21875 0
0.40625 0.1875 0
0.4375 0.1875 0
0.40625 0.21875 0
0.4375 0.21875 0
0.375 0.21875 0
0.40625 0.21875 0
0.375 0.25 0
0.40625 0.25 0
0.40625 0.21875 0
0.4375 0.21875 0
0.40625 0.25 0
0.4375 0.25 0
0.4375 0.1875 0
0.46875 0.1875 0
0.4375 0.21875 0
0.46875 0.21875 0
0.46875 0.1875 0
0.5 0.1875 0
0.46875 0.21875 0
0.5 0.21875 0
0.4375 0.21875 0
0.46875 0.21875 0
0.4375 0.25 0
0.46875 0.25 0
0.46875 0.21875 0
0.5 0.21875 0
0.46875 0.25 0
0.5 0.25 0
0 0.25 0
0.03125 0.25 0
0 0.28125 0
0.03125 0.28125 0
0.03125 0.25 0
0.0625 0.25 0
0.03125 0.28125 0
0.0625 0.28125 0
0 0.28125 0
0.03125 0.28125 0
0 0.3125 0
0.03125 0.3125 0
0.03125 0.28125 0
0.0625 0.28125 0
0.03125 0.3125 0
0.0625 0.3125 0
0.0625 0.25 0
0.09375 0.25 0
0.0625 0.28125 0
0.09375 0.28125 0
0.09375 0.25 0
0.125 0.25 0
0.09375 0.28125 0
0.125 0.28125 0
0.0625 0.28125 0
0.09375 0.28125 0
0.0625 0.3125 0
0.09375 0.3125 0
0.09375 0.28125 0
0.125 0.28125 0
0.09375 0.3125 0
0.125 0.3125 0
0 0.3125 0
0.03125 0.3125 0
0 0.34375 0
0.03125 0.34375 0
0.03125 0.3125 0
0.0625 0.3125 0
0.03125 0.34375 0
0.0625 0.34375 0
0 0.34375 0
0.03125 0.34375 0
0 0.375 0
0.03125 0.375 0
0.03125 0.34375 0
0.0625 0.34375 0
0.03125 0.375 0
0.0625 0.375 0
0.0625 0.3125 0
0.09375 0.3125 0
0.0625 0.34375 0
0.09375 0.34375 0
0.09375 0.3125 0
0.125 0.3125 0
0.09375 0.34375 0
0.125 0.34375 0
0.0625 0.34375 0
0.09375 0.34375 0
0.0625 0.375 0
0.09375 0.375 0
0.09375 0.34375 0
0.125 0.34375 0
0.09375 0.375 0
0.125 0.375 0
0.125 0.25 0
0.15625 0.25 0
0.125 0.28125 0
0.15625 0.28125 0
0.15625 0.25 0
0.1875 0.25 0
0.15625 0.28125 0
0.1875 0.28125 0
0.125 0.28125 0
0.15625 0.28125 0
0.125 0.3125 0
0.15625 0.3125 0
0.15625 0.28125 0
0.1875 0.28125 0
0.15625 0.3125 0
0.1875 0.3125 0
0.1875 0.25 0
0.21875 0.25 0
0.1875 0.28125 0
0.21875 0.28125 0
0.21875 0.25 0
0.25 0.25 0
0.21875 0.28125 0
0.25 0.28125 0
0.1875 0.28125 0
0.21875 0.28125 0
0.1875 0.3125 0
0.21875 0.3125 0
0.21875 0.28125 0
0.25 0.28125 0
0.21875 0.3125 0
0.25 0.3125 0
0.125 0.3125 0
0.15625 0.3125 0
0.125 0.34375 0
0.15625 0.34375 0
0.15625 0.3125 0
0.1875 0.3125 0
0.15625 0.34375 0
0.1875 0.34375 0
0.125 0.34375 0
[...]
POINT_DATA 4096
SCALARS u_x double 1
LOOKUP_TABLE default
1.74774e-05 1.55853e-05 -3.50297e-05 -9.52117e-05 1.55853e-05 1.99626e-05 -9.52117e-05 -0.000509645 -3.50297e-05 -9.52117e-05 -0.000155363 -0.000277404 -9.52117e-05 -0.000509645 -0.000277404 -0.00112441 1.99626e-05 1.2547e-05 -0.000509645 -0.00120599 1.2547e-05 -1.40466e-07 -0.00120599 -0.00210669 -0.000509645 -0.00120599 -0.00112441 -0.00237972 -0.00120599 -0.00210669 -0.00237972 -0.00394042 -0.000155363 -0.000277404 -0.000258776 -0.000425754 -0.000277404 -0.00112441 -0.000425754 -0.00163363 -0.000258776 -0.000425754 -0.000301057 -0.000532403 -0.000425754 -0.00163363 -0.000532403 -0.00200397 -0.00112441 -0.00237972 -0.00163363 -0.00333097 -0.00237972 -0.00394042 -0.00333097 -0.00538454 -0.00163363 -0.00333097 -0.00200397 -0.00403831 -0.00333097 -0.00538454 -0.00403831 -0.00646157 -1.40466e-07 -1.42875e-05 -0.00210669 -0.00311494 -1.42875e-05 -2.82023e-05 -0.00311494 -0.00415748 -0.00210669 -0.00311494 -0.00394042 -0.00566561 -0.00311494 -0.00415748 -0.00566561 -0.00744561 -2.82023e-05 -4.12894e-05 -0.00415748 -0.00518371 -4.12894e-05 -5.33808e-05 -0.00518371 -0.00616078 -0.00415748 -0.00518371 -0.00744561 -0.00919926 -0.00518371 -0.00616078 -0.00919926 -0.0108709 -0.00394042 -0.00566561 -0.00538454 -0.00762484 -0.00566561 -0.00744561 -0.00762484 -0.00992408 -0.00538454 -0.00762484 -0.00646157 -0.0090798 -0.00762484 -0.00992408 -0.0090798 -0.0117523 -0.00744561 -0.00919926 -0.00992408 -0.0121851 -0.00919926 -0.0108709 -0.0121851 -0.0143393 -0.00992408 -0.0121851 -0.0117523 -0.014373 -0.0121851 -0.0143393 -0.014373 -0.0168662 -0.000301057 -0.000532403 -0.000264751 -0.000613445 -0.000532403 -0.00200397 -0.000613445 -0.00226636 -0.000264751 -0.000613445 -0.000143916 -0.000686011 -0.000613445 -0.00226636 -0.000686011 -0.00246515 -0.00200397 -0.00403831 -0.00226636 -0.0045587 -0.00403831 -0.00646157 -0.0045587 -0.00726662 -0.00226636 -0.0045587 -0.00246515 -0.00496914 -0.0045587 -0.00726662 -0.00496914 -0.0079126 -0.000143916 -0.000686011 6.36783e-05 -0.00076313 -0.000686011 -0.00246515 -0.00076313 -0.0026386 6.36783e-05 -0.00076313 0.000359984 -0.000853696 -0.00076313 -0.0026386 -0.000853696 -0.00281435 -0.00246515 -0.00496914 -0.0026386 -0.00533831 -0.00496914 -0.0079126 -0.00533831 -0.00849955 -0.0026386 -0.00533831 -0.00281435 -0.00571768 -0.00533831 -0.00849955 -0.00571768 -0.00910334 -0.00646157 -0.0090798 -0.00726662 -0.0101758 -0.0090798 -0.0117523 -0.0101758 -0.0131328 -0.00726662 -0.0101758 -0.0079126 -0.0110661 -0.0101758 -0.0131328 -0.0110661 -0.0142624 -0.0117523 -0.014373 -0.0131328 -0.0160247 -0.014373 -0.0168662 -0.0160247 -0.0187714 -0.0131328 -0.0160247 -0.0142624 -0.0173818 -0.0160247 -0.0187714 -0.0173818 -0.0203403 -0.0079126 -0.0110661 -0.00849955 -0.0118829 -0.0110661 -0.0142624 -0.0118829 -0.0153058 -0.00849955 -0.0118829 -0.00910334 -0.0127259 -0.0118829 -0.0153058 -0.0127259 -0.0163861 -0.0142624 -0.0173818 -0.0153058 -0.0186415 -0.0173818 -0.0203403 -0.0186415 -0.0218016 -0.0153058 -0.0186415 -0.0163861 -0.019949 -0.0186415 -0.0218016 -0.019949 -0.0233212 -5.33808e-05 -6.44558e-05 -0.00616078 -0.00706731 -6.44558e-05 -7.45074e-05 -0.00706731 -0.00788849 -0.00616078 -0.00706731 -0.0108709 -0.0124226 -0.00706731 -0.00788849 -0.0124226 -0.0138276 -7.45074e-05 -8.34993e-05 -0.00788849 -0.00861302 -8.34993e-05 -9.13615e-05 -0.00861302 -0.00923148 -0.00788849 -0.00861302 -0.0138276 -0.0150654 -0.00861302 -0.00923148 -0.0150654 -0.0161195 -0.0108709 -0.0124226 -0.0143393 -0.0163381 -0.0124226 -0.0138276 -0.0163381 -0.0181468 -0.0143393 -0.0163381 -0.0168662 -0.0191778 -0.0163381 -0.0181468 -0.0191778 -0.0212678 -0.0138276 -0.0150654 -0.0181468 -0.0197384 -0.0150654 -0.0161195 -0.0197384 -0.0210915 -0.0181468 -0.0197384 -0.0212678 -0.0231057 -0.0197384 -0.0210915 -0.0231057 -0.0246666 -9.13615e-05 -9.79982e-05 -0.00923148 -0.00973565 -9.79982e-05 -0.000103299 -0.00973565 -0.0101183 -0.00923148 -0.00973565 -0.0161195 -0.0169758 -0.00973565 -0.0101183 -0.0169758 -0.017622 -0.000103299 -0.000107149 -0.0101183 -0.0103731 -0.000107149 -0.000109439 -0.0103731 -0.0104951 -0.0101183 -0.0103731 -0.017622 -0.0180481 -0.0103731 -0.0104951 -0.0180481 -0.0182459 -0.0161195 -0.0169758 -0.0210915 -0.0221879 -0.0169758 -0.017622 -0.0221879 -0.0230122 -0.0210915 -0.0221879 -0.0246666 -0.0259298 -0.0221879 -0.0230122 -0.0259298 -0.026878 -0.017622 -0.0180481 -0.0230122 -0.0235519 -0.0180481 -0.0182459 -0.0235519 -0.023797 -0.0230122 -0.0235519 -0.026878 -0.0274969 -0.0235519 -0.023797 -0.0274969 -0.0277755 -0.0168662 -0.0191778 -0.0187714 -0.0213155 -0.0191778 -0.0212678 -0.0213155 -0.0236144 -0.0187714 -0.0213155 -0.0203403 -0.0230783 -0.0213155 -0.0236144 -0.0230783 -0.0255515 -0.0212678 -0.0231057 -0.0236144 -0.0256353 -0.0231057 -0.0246666 -0.0256353 -0.0273513 -0.0236144 -0.0256353 -0.0255515 -0.0277259 -0.0256353 -0.0273513 -0.0277259 -0.0295734 -0.0203403 -0.0230783 -0.0218016 -0.0247242 -0.0230783 -0.0255515 -0.0247242 -0.027364 -0.0218016 -0.0247242 -0.0233212 -0.0264386 -0.0247242 -0.027364 -0.0264386 -0.0292545 -0.0255515 -0.0277259 -0.027364 -0.029686 -0.0277259 -0.0295734 -0.029686 -0.0316617 -0.027364 -0.029686 -0.0292545 -0.0317336 -0.029686 -0.0316617 -0.0317336 -0.0338468 -0.0246666 -0.0259298 -0.0273513 -0.0287403 -0.0259298 -0.026878 -0.0287403 -0.0297834 -0.0273513 -0.0287403 -0.0295734 -0.0310709 -0.0287403 -0.0297834 -0.0310709 -0.0321987 -0.026878 -0.0274969 -0.0297834 -0.0304654 -0.0274969 -0.0277755 -0.0304654 -0.030774 -0.0297834 -0.0304654 -0.0321987 -0.0329404 -0.0304654 -0.030774 -0.0329404 -0.0332828 -0.0295734 -0.0310709 -0.0316617 -0.0332671 -0.0310709 -0.0321987 -0.0332671 -0.0344819 -0.0316617 -0.0332671 -0.0338468 -0.0355699 -0.0332671 -0.0344819 -0.0355699 -0.0368819 -0.0321987 -0.0329404 -0.0344819 -0.0352886 -0.0329404 -0.0332828 -0.0352886 -0.0356731 -0.0344819 -0.0352886 -0.0368819 -0.0377646 -0.0352886 -0.0356731 -0.0377646 -0.0382023 0.000359984 -0.000853696 0.000748196 -0.000963536 -0.000853696 -0.00281435 -0.000963536 -0.00301059 0.000748196 -0.000963536 0.0012333 -0.00109667 -0.000963536 -0.00301059 -0.00109667 -0.00323905 -0.00281435 -0.00571768 -0.00301059 -0.00614231 -0.00571768 -0.00910334 -0.00614231 -0.00977662 -0.00301059 -0.00614231 -0.00323905 -0.00663566 -0.00614231 -0.00977662 -0.00663566 -0.0105551 0.0012333 -0.00109667 0.0018222 -0.00125639 -0.00109667 -0.00323905 -0.00125639 -0.00350805 0.0018222 -0.00125639 0.00252376 -0.00144597 -0.00125639 -0.00350805 -0.00144597 -0.00382493 -0.00323905 -0.00663566 -0.00350805 -0.00721481 -0.00663566 -0.0105551 -0.00721481 -0.0114649 -0.00350805 -0.00721481 -0.00382493 -0.00789486 -0.00721481 -0.0114649 -0.00789486 -0.012529 -0.00910334 -0.0127259 -0.00977662 -0.0136646 -0.0127259 -0.0163861 -0.0136646 -0.0175885 -0.00977662 -0.0136646 -0.0105551 -0.0147467 -0.0136646 -0.0175885 -0.0147467 -0.0189708 -0.0163861 -0.019949 -0.0175885 -0.0214038 -0.019949 -0.0233212 -0.0214038 -0.0250119 -0.0175885 -0.0214038 -0.0189708 -0.023073 -0.0214038 -0.0250119 -0.023073 -0.0269483 -0.0105551 -0.0147467 -0.0114649 -0.0160066 -0.0147467 -0.0189708 -0.0160066 -0.0205751 -0.0114649 -0.0160066 -0.012529 -0.0174744 -0.0160066 -0.0205751 -0.0174744 -0.022437 -0.0189708 -0.023073 -0.0205751 -0.0250044 -0.023073 -0.0269483 -0.0250044 -0.0291827 -0.0205751 -0.0250044 -0.022437 -0.0272375 -0.0250044 -0.0291827 -0.0272375 -0.0317569 0.00252376 -0.00144597 0.00334884 -0.00166926 -0.00144597 -0.00382493 -0.00166926 -0.00419776 0.00334884 -0.00166926 0.00431056 -0.00193112 -0.00166926 -0.00419776 -0.00193112 -0.00463679 -0.00382493 -0.00789486 -0.00419776 -0.00869222 -0.00789486 -0.012529 -0.00869222 -0.0137717 -0.00419776 -0.00869222 -0.00463679 -0.00962719 -0.00869222 -0.0137717 -0.00962719 -0.0152228 0.00431056 -0.00193112 0.00542453 -0.00223787 -0.00193112 -0.00463679 -0.00223787 -0.0051558 0.00542453 -0.00223787 0.0067094 -0.0025979 -0.00223787 -0.0051558 -0.0025979 -0.00577385 -0.00463679 -0.00962719 -0.0051558 -0.0107266 -0.00962719 -0.0152228 -0.0107266 -0.0169204 -0.0051558 -0.0107266 -0.00577385 -0.0120267 -0.0107266 -0.0169204 -0.0120267 -0.018916 -0.012529 -0.0174744 -0.0137717 -0.0191814 -0.0174744 -0.022437 -0.0191814 -0.0245926 -0.0137717 -0.0191814 -0.0152228 -0.0211647 -0.0191814 -0.0245926 -0.0211647 -0.027084 -0.022437 -0.0272375 -0.0245926 -0.0298114 -0.0272375 -0.0317569 -0.0298114 -0.0347109 -0.0245926 -0.0298114 -0.027084 -0.0327702 -0.0298114 -0.0347109 -0.0327702 -0.0380886 -0.0152228 -0.0211647 -0.0169204 -0.0234717 -0.0211647 -0.027084 -0.0234717 -0.0299638 -0.0169204 -0.0234717 -0.018916 -0.026164 -0.0234717 -0.0299638 -0.026164 -0.0332987 -0.027084 -0.0327702 -0.0299638 -0.0361678 -0.0327702 -0.0380886 -0.0361678 -0.0419416 -0.0299638 -0.0361678 -0.0332987 -0.0400709 -0.0361678 -0.0419416 -0.0400709 -0.0463324 -0.0233212 -0.0264386 -0.0250119 -0.0283457 -0.0264386 -0.0292545 -0.0283457 -0.0313576 -0.0250119 -0.0283457 -0.0269483 -0.0305267 -0.0283457 -0.0313576 -0.0305267 -0.0337599 -0.0292545 -0.0317336 -0.0313576 -0.0340118 -0.0317336 -0.0338468 -0.0340118 -0.0362793 -0.0313576 -0.0340118 -0.0337599 -0.0366118 -0.0340118 -0.0362793 -0.0366118 -0.0390541 -0.0269483 -0.0305267 -0.0291827 -0.0330372 -0.0305267 -0.0337599 -0.0330372 -0.0365189 -0.0291827 -0.0330372 -0.0317569 -0.0359199 -0.0330372 -0.0365189 -0.0359199 -0.0396777 -0.0337599 -0.0366118 -0.0365189 -0.0395927 -0.0366118 -0.0390541 -0.0395927 -0.0422316 -0.0365189 -0.0395927 -0.0396777 -0.0429971 -0.0395927 -0.0422316 -0.0429971 -0.0458536 -0.0338468 -0.0355699 -0.0362793 -0.0381359 -0.0355699 -0.0368819 -0.0381359 -0.0395602 -0.0362793 -0.0381359 -0.0390541 -0.0410631 -0.0381359 -0.0395602 -0.0410631 -0.0426174 -0.0368819 -0.0377646 -0.0395602 -0.0405333 -0.0377646 -0.0382023 -0.0405333 -0.0410379 -0.0395602 -0.0405333 -0.0426174 -0.0436975 -0.0405333 -0.0410379 -0.0436975 -0.0442847 -0.0390541 -0.0410631 -0.0422316 -0.0444129 -0.0410631 -0.0426174 -0.0444129 -0.0461163 -0.0422316 -0.0444129 -0.0458536 -0.048227 -0.0444129 -0.0461163 -0.048227 -0.0500987 -0.0426174 -0.0436975 -0.0461163 -0.0473219 -0.0436975 -0.0442847 -0.0473219 -0.04801 -0.0461163 -0.0473219 -0.0500987 -0.0514498 -0.0473219 -0.04801 -0.0514498 -0.0522594 -0.0317569 -0.0359199 -0.0347109 -0.0392142 -0.0359199 -0.0396777 -0.0392142 -0.0432739 -0.0347109 -0.0392142 -0.0380886 -0.0429615 -0.0392142 -0.0432739 -0.0429615 -0.0473451 -0.0396777 -0.0429971 -0.0432739 -0.0468603 -0.0429971 -0.0458536 -0.0468603 -0.0499531 -0.0432739 -0.0468603 -0.0473451 -0.0512156 -0.0468603 -0.0499531 -0.0512156 -0.0545594 -0.0380886 -0.0429615 -0.0419416 -0.0472089 -0.0429615 -0.0473451 -0.0472089 -0.0519324 -0.0419416 -0.0472089 -0.0463324 -0.0520114 -0.0472089 -0.0519324 -0.0520114 -0.057081 -0.0473451 -0.0512156 -0.0519324 -0.056097 -0.0512156 -0.0545594 -0.056097 -0.0596995 -0.0519324 -0.056097 -0.057081 -0.0615397 -0.056097 -0.0596995 -0.0615397 -0.0653986 -0.0458536 -0.048227 -0.0499531 -0.0525365 -0.048227 -0.0500987 -0.0525365 -0.0545952 -0.0499531 -0.0525365 -0.0545594 -0.0573672 -0.0525365 -0.0545952 -0.0573672 -0.0596295 -0.0500987 -0.0514498 -0.0545952 -0.0561124 -0.0514498 -0.0522594 -0.0561124 -0.0570672 -0.0545952 -0.0561124 -0.0596295 -0.0613335 -0.0561124 -0.0570672 -0.0613335 -0.0624594 -0.0545594 -0.0573672 -0.0596995 -0.0627404 -0.0573672 -0.0596295 -0.0627404 -0.0652189 -0.0596995 -0.0627404 -0.0653986 -0.0686723 -0.0627404 -0.0652189 -0.0686723 -0.0713727 -0.0596295 -0.0613335 -0.0652189 -0.0671286 -0.0613335 -0.0624594 -0.0671286 -0.0684536 -0.0652189 -0.0671286 -0.0713727 -0.0735035 -0.0671286 -0.0684536 -0.0735035 -0.0750554 -0.000109439 -0.000110073 -0.0104951 -0.0104803 -0.000110073 -0.00010897 -0.0104803 -0.0103265 -0.0104951 -0.0104803 -0.0182459 -0.0182095 -0.0104803 -0.0103265 -0.0182095 -0.0179354 -0.00010897 -0.000106068 -0.0103265 -0.0100328 -0.000106068 -0.000101331 -0.0100328 -0.00960034 -0.0103265 -0.0100328 -0.0179354 -0.0174231 -0.0100328 -0.00960034 -0.0174231 -0.0166749 -0.0182459 -0.0182095 -0.023797 -0.0237404 -0.0182095 -0.0179354 -0.0237404 -0.0233783 -0.023797 -0.0237404 -0.0277755 -0.0277057 -0.0237404 -0.0233783 -0.0277057 -0.0272835 -0.0179354 -0.0174231 -0.0233783 -0.0227104 -0.0174231 -0.0166749 -0.0227104 -0.0217401 -0.0233783 -0.0227104 -0.0272835 -0.0265084 -0.0227104 -0.0217401 -0.0265084 -0.0253846 -0.000101331 -9.47466e-05 -0.00960034 -0.00903206 -9.47466e-05 -8.63282e-05 -0.00903206 -0.00833333 -0.00960034 -0.00903206 -0.0166749 -0.0156966 -0.00903206 -0.00833333 -0.0156966 -0.0144981 -8.63282e-05 -7.61033e-05 -0.00833333 -0.00751224 -7.61033e-05 -6.41249e-05 -0.00751224 -0.00658073 -0.00833333 -0.00751224 -0.0144981 -0.013094 -0.00751224 -0.00658073 -0.013094 -0.0115057 -0.0166749 -0.0156966 -0.0217401 -0.0204754 -0.0156966 -0.0144981 -0.0204754 -0.0189294 -0.0217401 -0.0204754 -0.0253846 -0.0239211 -0.0204754 -0.0189294 -0.0239211 -0.0221331 -0.0144981 -0.013094 -0.0189294 -0.0171214 -0.013094 -0.0115057 -0.0171214 -0.0150795 -0.0189294 -0.0171214 -0.0221331 -0.0200428 -0.0171214 -0.0150795 -0.0200428 -0.0176824 -0.0277755 -0.0277057 -0.030774 -0.0307006 -0.0277057 -0.0272835 -0.0307006 -0.0302403 -0.030774 -0.0307006 -0.0332828 -0.0332163 -0.0307006 -0.0302403 -0.0332163 -0.0327346 -0.0272835 -0.0265084 -0.0302403 -0.0293922 -0.0265084 -0.0253846 -0.0293922 -0.0281603 -0.0302403 -0.0293922 -0.0327346 -0.031836 -0.0293922 -0.0281603 -0.031836 -0.0305232 -0.0332828 -0.0332163 -0.0356731 -0.0356241 -0.0332163 -0.0327346 -0.0356241 -0.0351339 -0.0356731 -0.0356241 -0.0382023 -0.0381821 -0.0356241 -0.0351339 -0.0381821 -0.0376939 -0.0327346 -0.031836 -0.0351339 -0.0341986 -0.031836 -0.0305232 -0.0341986 -0.0328193 -0.0351339 -0.0341986 -0.0376939 -0.0367312 -0.0341986 -0.0328193 -0.0367312 -0.0352921 -0.0253846 -0.0239211 -0.0281603 -0.0265539 -0.0239211 -0.0221331 -0.0265539 -0.0245889 -0.0281603 -0.0265539 -0.0305232 -0.0288049 -0.0265539 -0.0245889 -0.0288049 -0.0266966 -0.0221331 -0.0200428 -0.0245889 -0.0222889 -0.0200428 -0.0176824 -0.0222889 -0.0196886 -0.0245889 -0.0222889 -0.0266966 -0.0242226 -0.0222889 -0.0196886 -0.0242226 -0.0214185 -0.0305232 -0.0288049 -0.0328193 -0.0310028 -0.0288049 -0.0266966 -0.0310028 -0.0287633 -0.0328193 -0.0310028 -0.0352921 -0.0333805 -0.0310028 -0.0287633 -0.0333805 -0.0310083 -0.0266966 -0.0242226 -0.0287633 -0.0261246 -0.0242226 -0.0214185 -0.0261246 -0.0231231 -0.0287633 -0.0261246 -0.0310083 -0.0281978 -0.0261246 -0.0231231 -0.0281978 -0.0249856 -6.41249e-05 -5.04694e-05 -0.00658073 -0.00555651 -5.04694e-05 -3.54007e-05 -0.00555651 -0.00446572 -0.00658073 -0.00555651 -0.0115057 -0.0097644 -0.00555651 -0.00446572 -0.0097644 -0.00791525 -3.54007e-05 -1.89599e-05 -0.00446572 -0.00335094 -1.89599e-05 -3.87898e-06 -0.00335094 -0.00225878 -0.00446572 -0.00335094 -0.00791525 -0.00602706 -0.00335094 -0.00225878 -0.00602706 -0.00417911 -0.0115057 -0.0097644 -0.0150795 -0.0128438 -0.0097644 -0.00791525 -0.0128438 -0.0104711 -0.0150795 -0.0128438 -0.0176824 -0.0150974 -0.0128438 -0.0104711 -0.0150974 -0.0123516 -0.00791525 -0.00602706 -0.0104711 -0.00804519 -0.00602706 -0.00417911 -0.00804519 -0.00566362 -0.0104711 -0.00804519 -0.0123516 -0.00953761 -0.00804519 -0.00566362 -0.00953761 -0.00676395 -3.87898e-06 1.03882e-05 -0.00225878 -0.00133863 1.03882e-05 5.9538e-05 -0.00133863 -0.000301337 -0.00225878 -0.00133863 -0.00417911 -0.00257222 -0.00133863 -0.000301337 -0.00257222 -0.000917986 5.9538e-05 -1.92081e-05 -0.000301337 -0.00127128 -1.92081e-05 0.00997948 -0.00127128 0.00886186 -0.000301337 -0.00127128 -0.000917986 -0.00151805 -0.00127128 0.00886186 -0.00151805 0.00926111 -0.00417911 -0.00257222 -0.00566362 -0.00354898 -0.00257222 -0.000917986 -0.00354898 -0.00143584 -0.00566362 -0.00354898 -0.00676395 -0.00426808 -0.00354898 -0.00143584 -0.00426808 -0.00181078 -0.000917986 -0.00151805 -0.00143584 -0.00169573 -0.00151805 0.00926111 -0.00169573 0.00912811 -0.00143584 -0.00169573 -0.00181078 -0.00180295 -0.00169573 0.00912811 -0.00180295 0.0090757 -0.0176824 -0.0150974 -0.0196886 -0.0168368 -0.0150974 -0.0123516 -0.0168368 -0.0138022 -0.0196886 -0.0168368 -0.0214185 -0.0183359 -0.0168368 -0.0138022 -0.0183359 -0.0150478 -0.0123516 -0.00953761 -0.0138022 -0.0106838 -0.00953761 -0.00676395 -0.0106838 -0.00759975 -0.0138022 -0.0106838 -0.0150478 -0.0116601 -0.0106838 -0.00759975 -0.0116601 -0.00830164 -0.0214185 -0.0183359 -0.0231231 -0.0198127 -0.0183359 -0.0150478 -0.0198127 -0.0162714 -0.0231231 -0.0198127 -0.0249856 -0.0214284 -0.0198127 -0.0162714 -0.0214284 -0.01761 -0.0150478 -0.0116601 -0.0162714 -0.0126136 -0.0116601 -0.00830164 -0.0126136 -0.00898101 -0.0162714 -0.0126136 -0.01761 -0.0136555 -0.0126136 -0.00898101 -0.0136555 -0.00972176 -0.00676395 -0.00426808 -0.00759975 -0.00480293 -0.00426808 -0.00181078 -0.00480293 -0.00207648 -0.00759975 -0.00480293 -0.00830164 -0.00524311 -0.00480293 -0.00207648 -0.00524311 -0.00228643 -0.00181078 -0.00180295 -0.00207648 -0.00188197 -0.00180295 0.0090757 -0.00188197 0.00911066 -0.00207648 -0.00188197 -0.00228643 -0.00195552 -0.00188197 0.00911066 -0.00195552 0.00922444 -0.00830164 -0.00524311 -0.00898101 -0.00566495 -0.00524311 -0.00228643 -0.00566495 -0.00248276 -0.00898101 -0.00566495 -0.00972176 -0.00612472 -0.00566495 -0.00248276 -0.00612472 -0.00269519 -0.00228643 -0.00195552 -0.00248276 -0.00203639 -0.00195552 0.00922444 -0.00203639 0.00941991 -0.00248276 -0.00203639 -0.00269519 -0.00213383 -0.00203639 0.00941991 -0.00213383 0.00969742 -0.0382023 -0.0381821 -0.0410379 -0.0410589 -0.0381821 -0.0376939 -0.0410589 -0.0405832 -0.0410379 -0.0410589 -0.0442847 -0.0443614 -0.0410589 -0.0405832 -0.0443614 -0.0439107 -0.0376939 -0.0367312 -0.0405832 -0.0396008 -0.0367312 -0.0352921 -0.0396008 -0.0381055 -0.0405832 -0.0396008 -0.0439107 -0.0429179 -0.0396008 -0.0381055 -0.0429179 -0.0413712 -0.0442847 -0.0443614 -0.04801 -0.0481598 -0.0443614 -0.0439107 -0.0481598 -0.0477504 -0.04801 -0.0481598 -0.0522594 -0.0525041 -0.0481598 -0.0477504 -0.0525041 -0.0521576 -0.0439107 -0.0429179 -0.0477504 -0.0467606 -0.0429179 -0.0413712 -0.0467606 -0.0451715 -0.0477504 -0.0467606 -0.0521576 -0.0511914 -0.0467606 -0.0451715 -0.0511914 -0.0495766 -0.0352921 -0.0333805 -0.0381055 -0.0360972 -0.0333805 -0.0310083 -0.0360972 -0.033584 -0.0381055 -0.0360972 -0.0413712 -0.0392644 -0.0360972 -0.033584 -0.0392644 -0.0366 -0.0310083 -0.0281978 -0.033584 -0.0305854 -0.0281978 -0.0249856 -0.0305854 -0.0271377 -0.033584 -0.0305854 -0.0366 -0.0333934 -0.0305854 -0.0271377 -0.0333934 -0.029679 -0.0413712 -0.0392644 -0.0451715 -0.0429685 -0.0392644 -0.0366 -0.0429685 -0.0401456 -0.0451715 -0.0429685 -0.0495766 -0.0472873 -0.0429685 -0.0401456 -0.0472873 -0.0443057 -0.0366 -0.0333934 -0.0401456 -0.0367116 -0.0333934 -0.029679 -0.0367116 -0.0326971 -0.0401456 -0.0367116 -0.0443057 -0.0406295 -0.0367116 -0.0326971 -0.0406295 -0.0362825 -0.0522594 -0.0525041 -0.0570672 -0.0574334 -0.0525041 -0.0521576 -0.0574334 -0.0571789 -0.0570672 -0.0574334 -0.0624594 -0.0629793 -0.0574334 -0.0571789 -0.0629793 -0.062855 -0.0521576 -0.0511914 -0.0571789 -0.0562662 -0.0511914 -0.0495766 -0.0562662 -0.0546539 -0.0571789 -0.0562662 -0.062855 -0.0620383 -0.0562662 -0.0546539 -0.0620383 -0.0604723 -0.0624594 -0.0629793 -0.0684536 -0.0691651 -0.0629793 -0.062855 -0.0691651 -0.0692197 -0.0684536 -0.0691651 -0.0750554 -0.0760019 -0.0691651 -0.0692197 -0.0760019 -0.0762954 -0.062855 -0.0620383 -0.0692197 -0.0685573 -0.0620383 -0.0604723 -0.0685573 -0.0671021 -0.0692197 -0.0685573 -0.0762954 -0.075864 -0.0685573 -0.0671021 -0.075864 -0.0746106 -0.0495766 -0.0472873 -0.0546539 -0.0523006 -0.0472873 -0.0443057 -0.0523006 -0.0491715 -0.0546539 -0.0523006 -0.0604723 -0.0580951 -0.0523006 -0.0491715 -0.0580951 -0.0548483 -0.0443057 -0.0406295 -0.0491715 -0.045248 -0.0406295 -0.0362825 -0.045248 -0.0405414 -0.0491715 -0.045248 -0.0548483 -0.0506885 -0.045248 -0.0405414 -0.0506885 -0.0456064 -0.0604723 -0.0580951 -0.0671021 -0.0647662 -0.0580951 -0.0548483 -0.0647662 -0.0614586 -0.067