# vtk DataFile Version 3.0
#This file was generated by the deal.II library on 2026/1/5 at 14:19:28
ASCII
DATASET UNSTRUCTURED_GRID

POINTS 4096 double
0 0 0
0.03125 0 0
0 0.03125 0
0.03125 0.03125 0
0.03125 0 0
0.0625 0 0
0.03125 0.03125 0
0.0625 0.03125 0
0 0.03125 0
0.03125 0.03125 0
0 0.0625 0
0.03125 0.0625 0
0.03125 0.03125 0
0.0625 0.03125 0
0.03125 0.0625 0
0.0625 0.0625 0
0.0625 0 0
0.09375 0 0
0.0625 0.03125 0
0.09375 0.03125 0
0.09375 0 0
0.125 0 0
0.09375 0.03125 0
0.125 0.03125 0
0.0625 0.03125 0
0.09375 0.03125 0
0.0625 0.0625 0
0.09375 0.0625 0
0.09375 0.03125 0
0.125 0.03125 0
0.09375 0.0625 0
0.125 0.0625 0
0 0.0625 0
0.03125 0.0625 0
0 0.09375 0
0.03125 0.09375 0
0.03125 0.0625 0
0.0625 0.0625 0
0.03125 0.09375 0
0.0625 0.09375 0
0 0.09375 0
0.03125 0.09375 0
0 0.125 0
0.03125 0.125 0
0.03125 0.09375 0
0.0625 0.09375 0
0.03125 0.125 0
0.0625 0.125 0
0.0625 0.0625 0
0.09375 0.0625 0
0.0625 0.09375 0
0.09375 0.09375 0
0.09375 0.0625 0
0.125 0.0625 0
0.09375 0.09375 0
0.125 0.09375 0
0.0625 0.09375 0
0.09375 0.09375 0
0.0625 0.125 0
0.09375 0.125 0
0.09375 0.09375 0
0.125 0.09375 0
0.09375 0.125 0
0.125 0.125 0
0.125 0 0
0.15625 0 0
0.125 0.03125 0
0.15625 0.03125 0
0.15625 0 0
0.1875 0 0
0.15625 0.03125 0
0.1875 0.03125 0
0.125 0.03125 0
0.15625 0.03125 0
0.125 0.0625 0
0.15625 0.0625 0
0.15625 0.03125 0
0.1875 0.03125 0
0.15625 0.0625 0
0.1875 0.0625 0
0.1875 0 0
0.21875 0 0
0.1875 0.03125 0
0.21875 0.03125 0
0.21875 0 0
0.25 0 0
0.21875 0.03125 0
0.25 0.03125 0
0.1875 0.03125 0
0.21875 0.03125 0
0.1875 0.0625 0
0.21875 0.0625 0
0.21875 0.03125 0
0.25 0.03125 0
0.21875 0.0625 0
0.25 0.0625 0
0.125 0.0625 0
0.15625 0.0625 0
0.125 0.09375 0
0.15625 0.09375 0
0.15625 0.0625 0
0.1875 0.0625 0
0.15625 0.09375 0
0.1875 0.09375 0
0.125 0.09375 0
0.15625 0.09375 0
0.125 0.125 0
0.15625 0.125 0
0.15625 0.09375 0
0.1875 0.09375 0
0.15625 0.125 0
0.1875 0.125 0
0.1875 0.0625 0
0.21875 0.0625 0
0.1875 0.09375 0
0.21875 0.09375 0
0.21875 0.0625 0
0.25 0.0625 0
0.21875 0.09375 0
0.25 0.09375 0
0.1875 0.09375 0
0.21875 0.09375 0
0.1875 0.125 0
0.21875 0.125 0
0.21875 0.09375 0
0.25 0.09375 0
0.21875 0.125 0
0.25 0.125 0
0 0.125 0
0.03125 0.125 0
0 0.15625 0
0.03125 0.15625 0
0.03125 0.125 0
0.0625 0.125 0
0.03125 0.15625 0
0.0625 0.15625 0
0 0.15625 0
0.03125 0.15625 0
0 0.1875 0
0.03125 0.1875 0
0.03125 0.15625 0
0.0625 0.15625 0
0.03125 0.1875 0
0.0625 0.1875 0
0.0625 0.125 0
0.09375 0.125 0
0.0625 0.15625 0
0.09375 0.15625 0
0.09375 0.125 0
0.125 0.125 0
0.09375 0.15625 0
0.125 0.15625 0
0.0625 0.15625 0
0.09375 0.15625 0
0.0625 0.1875 0
0.09375 0.1875 0
0.09375 0.15625 0
0.125 0.15625 0
0.09375 0.1875 0
0.125 0.1875 0
0 0.1875 0
0.03125 0.1875 0
0 0.21875 0
0.03125 0.21875 0
0.03125 0.1875 0
0.0625 0.1875 0
0.03125 0.21875 0
0.0625 0.21875 0
0 0.21875 0
0.03125 0.21875 0
0 0.25 0
0.03125 0.25 0
0.03125 0.21875 0
0.0625 0.21875 0
0.03125 0.25 0
0.0625 0.25 0
0.0625 0.1875 0
0.09375 0.1875 0
0.0625 0.21875 0
0.09375 0.21875 0
0.09375 0.1875 0
0.125 0.1875 0
0.09375 0.21875 0
0.125 0.21875 0
0.0625 0.21875 0
0.09375 0.21875 0
0.0625 0.25 0
0.09375 0.25 0
0.09375 0.21875 0
0.125 0.21875 0
0.09375 0.25 0
0.125 0.25 0
0.125 0.125 0
0.15625 0.125 0
0.125 0.15625 0
0.15625 0.15625 0
0.15625 0.125 0
0.1875 0.125 0
0.15625 0.15625 0
0.1875 0.15625 0
0.125 0.15625 0
0.15625 0.15625 0
0.125 0.1875 0
0.15625 0.1875 0
0.15625 0.15625 0
0.1875 0.15625 0
0.15625 0.1875 0
0.1875 0.1875 0
0.1875 0.125 0
0.21875 0.125 0
0.1875 0.15625 0
0.21875 0.15625 0
0.21875 0.125 0
0.25 0.125 0
0.21875 0.15625 0
0.25 0.15625 0
0.1875 0.15625 0
0.21875 0.15625 0
0.1875 0.1875 0
0.21875 0.1875 0
0.21875 0.15625 0
0.25 0.15625 0
0.21875 0.1875 0
0.25 0.1875 0
0.125 0.1875 0
0.15625 0.1875 0
0.125 0.21875 0
0.15625 0.21875 0
0.15625 0.1875 0
0.1875 0.1875 0
0.15625 0.21875 0
0.1875 0.21875 0
0.125 0.21875 0
0.15625 0.21875 0
0.125 0.25 0
0.15625 0.25 0
0.15625 0.21875 0
0.1875 0.21875 0
0.15625 0.25 0
0.1875 0.25 0
0.1875 0.1875 0
0.21875 0.1875 0
0.1875 0.21875 0
0.21875 0.21875 0
0.21875 0.1875 0
0.25 0.1875 0
0.21875 0.21875 0
0.25 0.21875 0
0.1875 0.21875 0
0.21875 0.21875 0
0.1875 0.25 0
0.21875 0.25 0
0.21875 0.21875 0
0.25 0.21875 0
0.21875 0.25 0
0.25 0.25 0
0.25 0 0
0.28125 0 0
0.25 0.03125 0
0.28125 0.03125 0
0.28125 0 0
0.3125 0 0
0.28125 0.03125 0
0.3125 0.03125 0
0.25 0.03125 0
0.28125 0.03125 0
0.25 0.0625 0
0.28125 0.0625 0
0.28125 0.03125 0
0.3125 0.03125 0
0.28125 0.0625 0
0.3125 0.0625 0
0.3125 0 0
0.34375 0 0
0.3125 0.03125 0
0.34375 0.03125 0
0.34375 0 0
0.375 0 0
0.34375 0.03125 0
0.375 0.03125 0
0.3125 0.03125 0
0.34375 0.03125 0
0.3125 0.0625 0
0.34375 0.0625 0
0.34375 0.03125 0
0.375 0.03125 0
0.34375 0.0625 0
0.375 0.0625 0
0.25 0.0625 0
0.28125 0.0625 0
0.25 0.09375 0
0.28125 0.09375 0
0.28125 0.0625 0
0.3125 0.0625 0
0.28125 0.09375 0
0.3125 0.09375 0
0.25 0.09375 0
0.28125 0.09375 0
0.25 0.125 0
0.28125 0.125 0
0.28125 0.09375 0
0.3125 0.09375 0
0.28125 0.125 0
0.3125 0.125 0
0.3125 0.0625 0
0.34375 0.0625 0
0.3125 0.09375 0
0.34375 0.09375 0
0.34375 0.0625 0
0.375 0.0625 0
0.34375 0.09375 0
0.375 0.09375 0
0.3125 0.09375 0
0.34375 0.09375 0
0.3125 0.125 0
0.34375 0.125 0
0.34375 0.09375 0
0.375 0.09375 0
0.34375 0.125 0
0.375 0.125 0
0.375 0 0
0.40625 0 0
0.375 0.03125 0
0.40625 0.03125 0
0.40625 0 0
0.4375 0 0
0.40625 0.03125 0
0.4375 0.03125 0
0.375 0.03125 0
0.40625 0.03125 0
0.375 0.0625 0
0.40625 0.0625 0
0.40625 0.03125 0
0.4375 0.03125 0
0.40625 0.0625 0
0.4375 0.0625 0
0.4375 0 0
0.46875 0 0
0.4375 0.03125 0
0.46875 0.03125 0
0.46875 0 0
0.5 0 0
0.46875 0.03125 0
0.5 0.03125 0
0.4375 0.03125 0
0.46875 0.03125 0
0.4375 0.0625 0
0.46875 0.0625 0
0.46875 0.03125 0
0.5 0.03125 0
0.46875 0.0625 0
0.5 0.0625 0
0.375 0.0625 0
0.40625 0.0625 0
0.375 0.09375 0
0.40625 0.09375 0
0.40625 0.0625 0
0.4375 0.0625 0
0.40625 0.09375 0
0.4375 0.09375 0
0.375 0.09375 0
0.40625 0.09375 0
0.375 0.125 0
0.40625 0.125 0
0.40625 0.09375 0
0.4375 0.09375 0
0.40625 0.125 0
0.4375 0.125 0
0.4375 0.0625 0
0.46875 0.0625 0
0.4375 0.09375 0
0.46875 0.09375 0
0.46875 0.0625 0
0.5 0.0625 0
0.46875 0.09375 0
0.5 0.09375 0
0.4375 0.09375 0
0.46875 0.09375 0
0.4375 0.125 0
0.46875 0.125 0
0.46875 0.09375 0
0.5 0.09375 0
0.46875 0.125 0
0.5 0.125 0
0.25 0.125 0
0.28125 0.125 0
0.25 0.15625 0
0.28125 0.15625 0
0.28125 0.125 0
0.3125 0.125 0
0.28125 0.15625 0
0.3125 0.15625 0
0.25 0.15625 0
0.28125 0.15625 0
0.25 0.1875 0
0.28125 0.1875 0
0.28125 0.15625 0
0.3125 0.15625 0
0.28125 0.1875 0
0.3125 0.1875 0
0.3125 0.125 0
0.34375 0.125 0
0.3125 0.15625 0
0.34375 0.15625 0
0.34375 0.125 0
0.375 0.125 0
0.34375 0.15625 0
0.375 0.15625 0
0.3125 0.15625 0
0.34375 0.15625 0
0.3125 0.1875 0
0.34375 0.1875 0
0.34375 0.15625 0
0.375 0.15625 0
0.34375 0.1875 0
0.375 0.1875 0
0.25 0.1875 0
0.28125 0.1875 0
0.25 0.21875 0
0.28125 0.21875 0
0.28125 0.1875 0
0.3125 0.1875 0
0.28125 0.21875 0
0.3125 0.21875 0
0.25 0.21875 0
0.28125 0.21875 0
0.25 0.25 0
0.28125 0.25 0
0.28125 0.21875 0
0.3125 0.21875 0
0.28125 0.25 0
0.3125 0.25 0
0.3125 0.1875 0
0.34375 0.1875 0
0.3125 0.21875 0
0.34375 0.21875 0
0.34375 0.1875 0
0.375 0.1875 0
0.34375 0.21875 0
0.375 0.21875 0
0.3125 0.21875 0
0.34375 0.21875 0
0.3125 0.25 0
0.34375 0.25 0
0.34375 0.21875 0
0.375 0.21875 0
0.34375 0.25 0
0.375 0.25 0
0.375 0.125 0
0.40625 0.125 0
0.375 0.15625 0
0.40625 0.15625 0
0.40625 0.125 0
0.4375 0.125 0
0.40625 0.15625 0
0.4375 0.15625 0
0.375 0.15625 0
0.40625 0.15625 0
0.375 0.1875 0
0.40625 0.1875 0
0.40625 0.15625 0
0.4375 0.15625 0
0.40625 0.1875 0
0.4375 0.1875 0
0.4375 0.125 0
0.46875 0.125 0
0.4375 0.15625 0
0.46875 0.15625 0
0.46875 0.125 0
0.5 0.125 0
0.46875 0.15625 0
0.5 0.15625 0
0.4375 0.15625 0
0.46875 0.15625 0
0.4375 0.1875 0
0.46875 0.1875 0
0.46875 0.15625 0
0.5 0.15625 0
0.46875 0.1875 0
0.5 0.1875 0
0.375 0.1875 0
0.40625 0.1875 0
0.375 0.21875 0
0.40625 0.21875 0
0.40625 0.1875 0
0.4375 0.1875 0
0.40625 0.21875 0
0.4375 0.21875 0
0.375 0.21875 0
0.40625 0.21875 0
0.375 0.25 0
0.40625 0.25 0
0.40625 0.21875 0
0.4375 0.21875 0
0.40625 0.25 0
0.4375 0.25 0
0.4375 0.1875 0
0.46875 0.1875 0
0.4375 0.21875 0
0.46875 0.21875 0
0.46875 0.1875 0
0.5 0.1875 0
0.46875 0.21875 0
0.5 0.21875 0
0.4375 0.21875 0
0.46875 0.21875 0
0.4375 0.25 0
0.46875 0.25 0
0.46875 0.21875 0
0.5 0.21875 0
0.46875 0.25 0
0.5 0.25 0
0 0.25 0
0.03125 0.25 0
0 0.28125 0
0.03125 0.28125 0
0.03125 0.25 0
0.0625 0.25 0
0.03125 0.28125 0
0.0625 0.28125 0
0 0.28125 0
0.03125 0.28125 0
0 0.3125 0
0.03125 0.3125 0
0.03125 0.28125 0
0.0625 0.28125 0
0.03125 0.3125 0
0.0625 0.3125 0
0.0625 0.25 0
0.09375 0.25 0
0.0625 0.28125 0
0.09375 0.28125 0
0.09375 0.25 0
0.125 0.25 0
0.09375 0.28125 0
0.125 0.28125 0
0.0625 0.28125 0
0.09375 0.28125 0
0.0625 0.3125 0
0.09375 0.3125 0
0.09375 0.28125 0
0.125 0.28125 0
0.09375 0.3125 0
0.125 0.3125 0
0 0.3125 0
0.03125 0.3125 0
0 0.34375 0
0.03125 0.34375 0
0.03125 0.3125 0
0.0625 0.3125 0
0.03125 0.34375 0
0.0625 0.34375 0
0 0.34375 0
0.03125 0.34375 0
0 0.375 0
0.03125 0.375 0
0.03125 0.34375 0
0.0625 0.34375 0
0.03125 0.375 0
0.0625 0.375 0
0.0625 0.3125 0
0.09375 0.3125 0
0.0625 0.34375 0
0.09375 0.34375 0
0.09375 0.3125 0
0.125 0.3125 0
0.09375 0.34375 0
0.125 0.34375 0
0.0625 0.34375 0
0.09375 0.34375 0
0.0625 0.375 0
0.09375 0.375 0
0.09375 0.34375 0
0.125 0.34375 0
0.09375 0.375 0
0.125 0.375 0
0.125 0.25 0
0.15625 0.25 0
0.125 0.28125 0
0.15625 0.28125 0
0.15625 0.25 0
0.1875 0.25 0
0.15625 0.28125 0
0.1875 0.28125 0
0.125 0.28125 0
0.15625 0.28125 0
0.125 0.3125 0
0.15625 0.3125 0
0.15625 0.28125 0
0.1875 0.28125 0
0.15625 0.3125 0
0.1875 0.3125 0
0.1875 0.25 0
0.21875 0.25 0
0.1875 0.28125 0
0.21875 0.28125 0
0.21875 0.25 0
0.25 0.25 0
0.21875 0.28125 0
0.25 0.28125 0
0.1875 0.28125 0
0.21875 0.28125 0
0.1875 0.3125 0
0.21875 0.3125 0
0.21875 0.28125 0
0.25 0.28125 0
0.21875 0.3125 0
0.25 0.3125 0
0.125 0.3125 0
0.15625 0.3125 0
0.125 0.34375 0
0.15625 0.34375 0
0.15625 0.3125 0
0.1875 0.3125 0
0.15625 0.34375 0
0.1875 0.34375 0
0.125 0.34375 0
[...]
POINT_DATA 4096
SCALARS u_x double 1
LOOKUP_TABLE default
1.15639e-05 7.94815e-06 -5.79375e-05 -0.000264744 7.94815e-06 -8.70124e-06 -0.000264744 -0.000851224 -5.79375e-05 -0.000264744 -7.92916e-05 -0.000412908 -0.000264744 -0.000851224 -0.000412908 -0.00125225 -8.70124e-06 -3.45617e-05 -0.000851224 -0.00156188 -3.45617e-05 -5.94011e-05 -0.00156188 -0.00228929 -0.000851224 -0.00156188 -0.00125225 -0.00224509 -0.00156188 -0.00228929 -0.00224509 -0.00325519 -7.92916e-05 -0.000412908 4.5939e-05 -0.000477407 -0.000412908 -0.00125225 -0.000477407 -0.00138429 4.5939e-05 -0.000477407 0.000320708 -0.000534788 -0.000477407 -0.00138429 -0.000534788 -0.00143507 -0.00125225 -0.00224509 -0.00138429 -0.00248211 -0.00224509 -0.00325519 -0.00248211 -0.00358652 -0.00138429 -0.00248211 -0.00143507 -0.00259338 -0.00248211 -0.00358652 -0.00259338 -0.0037434 -5.94011e-05 -8.2789e-05 -0.00228929 -0.00299577 -8.2789e-05 -0.000104912 -0.00299577 -0.00366891 -0.00228929 -0.00299577 -0.00325519 -0.00423792 -0.00299577 -0.00366891 -0.00423792 -0.00517481 -0.000104912 -0.000125724 -0.00366891 -0.00430126 -0.000125724 -0.000145044 -0.00430126 -0.00488624 -0.00366891 -0.00430126 -0.00517481 -0.0060548 -0.00430126 -0.00488624 -0.0060548 -0.00686845 -0.00325519 -0.00423792 -0.00358652 -0.00466104 -0.00423792 -0.00517481 -0.00466104 -0.00568493 -0.00358652 -0.00466104 -0.0037434 -0.00486337 -0.00466104 -0.00568493 -0.00486337 -0.00592935 -0.00517481 -0.0060548 -0.00568493 -0.00664648 -0.0060548 -0.00686845 -0.00664648 -0.00753521 -0.00568493 -0.00664648 -0.00592935 -0.00693005 -0.00664648 -0.00753521 -0.00693005 -0.00785452 0.000320708 -0.000534788 0.000743379 -0.000612809 -0.000534788 -0.00143507 -0.000612809 -0.00147934 0.000743379 -0.000612809 0.00131683 -0.000717268 -0.000612809 -0.00147934 -0.000717268 -0.00153415 -0.00143507 -0.00259338 -0.00147934 -0.00270228 -0.00259338 -0.0037434 -0.00270228 -0.00389716 -0.00147934 -0.00270228 -0.00153415 -0.00283824 -0.00270228 -0.00389716 -0.00283824 -0.00408815 0.00131683 -0.000717268 0.00204742 -0.000849771 -0.000717268 -0.00153415 -0.000849771 -0.00160262 0.00204742 -0.000849771 0.00294395 -0.00101193 -0.000849771 -0.00160262 -0.00101193 -0.00168603 -0.00153415 -0.00283824 -0.00160262 -0.00300772 -0.00283824 -0.00408815 -0.00300772 -0.00432547 -0.00160262 -0.00300772 -0.00168603 -0.00321384 -0.00300772 -0.00432547 -0.00321384 -0.00461355 -0.0037434 -0.00486337 -0.00389716 -0.00506338 -0.00486337 -0.00592935 -0.00506338 -0.00617185 -0.00389716 -0.00506338 -0.00408815 -0.00531179 -0.00506338 -0.00617185 -0.00531179 -0.006473 -0.00592935 -0.00693005 -0.00617185 -0.00721184 -0.00693005 -0.00785452 -0.00721184 -0.00817191 -0.00617185 -0.00721184 -0.006473 -0.00756163 -0.00721184 -0.00817191 -0.00756163 -0.00856563 -0.00408815 -0.00531179 -0.00432547 -0.00561999 -0.00531179 -0.006473 -0.00561999 -0.00684617 -0.00432547 -0.00561999 -0.00461355 -0.00599353 -0.00561999 -0.00684617 -0.00599353 -0.0072978 -0.006473 -0.00756163 -0.00684617 -0.0079946 -0.00756163 -0.00856563 -0.0079946 -0.00905241 -0.00684617 -0.0079946 -0.0072978 -0.00851781 -0.0079946 -0.00905241 -0.00851781 -0.00963974 -0.000145044 -0.000162671 -0.00488624 -0.00541782 -0.000162671 -0.000178414 -0.00541782 -0.00589055 -0.00488624 -0.00541782 -0.00686845 -0.00760734 -0.00541782 -0.00589055 -0.00760734 -0.00826391 -0.000178414 -0.000192102 -0.00589055 -0.00629963 -0.000192102 -0.000203587 -0.00629963 -0.00664094 -0.00589055 -0.00629963 -0.00826391 -0.00883158 -0.00629963 -0.00664094 -0.00883158 -0.00930472 -0.00686845 -0.00760734 -0.00753521 -0.00834192 -0.00760734 -0.00826391 -0.00834192 -0.00905841 -0.00753521 -0.00834192 -0.00785452 -0.00869327 -0.00834192 -0.00905841 -0.00869327 -0.00943787 -0.00826391 -0.00883158 -0.00905841 -0.00967756 -0.00883158 -0.00930472 -0.00967756 -0.0101933 -0.00905841 -0.00967756 -0.00943787 -0.010081 -0.00967756 -0.0101933 -0.010081 -0.0106166 -0.000203587 -0.00021274 -0.00664094 -0.00691108 -0.00021274 -0.000219461 -0.00691108 -0.00710734 -0.00664094 -0.00691108 -0.00930472 -0.00967869 -0.00691108 -0.00710734 -0.00967869 -0.00994985 -0.000219461 -0.000223672 -0.00710734 -0.00722775 -0.000223672 -0.00022532 -0.00722775 -0.00727104 -0.00710734 -0.00722775 -0.00994985 -0.0101155 -0.00722775 -0.00727104 -0.0101155 -0.0101741 -0.00930472 -0.00967869 -0.0101933 -0.0106008 -0.00967869 -0.00994985 -0.0106008 -0.010896 -0.0101933 -0.0106008 -0.0106166 -0.0110396 -0.0106008 -0.010896 -0.0110396 -0.0113461 -0.00994985 -0.0101155 -0.010896 -0.0110762 -0.0101155 -0.0101741 -0.0110762 -0.0111395 -0.010896 -0.0110762 -0.0113461 -0.0115332 -0.0110762 -0.0111395 -0.0115332 -0.0115991 -0.00785452 -0.00869327 -0.00817191 -0.00904238 -0.00869327 -0.00943787 -0.00904238 -0.00981465 -0.00817191 -0.00904238 -0.00856563 -0.00947509 -0.00904238 -0.00981465 -0.00947509 -0.0102812 -0.00943787 -0.010081 -0.00981465 -0.0104813 -0.010081 -0.0106166 -0.0104813 -0.0110363 -0.00981465 -0.0104813 -0.0102812 -0.0109766 -0.0104813 -0.0110363 -0.0109766 -0.0115551 -0.00856563 -0.00947509 -0.00905241 -0.0100094 -0.00947509 -0.0102812 -0.0100094 -0.0108567 -0.00905241 -0.0100094 -0.00963974 -0.0106532 -0.0100094 -0.0108567 -0.0106532 -0.011549 -0.0102812 -0.0109766 -0.0108567 -0.0115869 -0.0109766 -0.0115551 -0.0115869 -0.0121938 -0.0108567 -0.0115869 -0.011549 -0.0123199 -0.0115869 -0.0121938 -0.0123199 -0.01296 -0.0106166 -0.0110396 -0.0110363 -0.0114745 -0.0110396 -0.0113461 -0.0114745 -0.011792 -0.0110363 -0.0114745 -0.0115551 -0.0120117 -0.0114745 -0.011792 -0.0120117 -0.0123427 -0.0113461 -0.0115332 -0.011792 -0.011986 -0.0115332 -0.0115991 -0.011986 -0.0120548 -0.011792 -0.011986 -0.0123427 -0.0125452 -0.011986 -0.0120548 -0.0125452 -0.0126175 -0.0115551 -0.0120117 -0.0121938 -0.0126726 -0.0120117 -0.0123427 -0.0126726 -0.0130196 -0.0121938 -0.0126726 -0.01296 -0.0134646 -0.0126726 -0.0130196 -0.0134646 -0.0138304 -0.0123427 -0.0125452 -0.0130196 -0.0132322 -0.0125452 -0.0126175 -0.0132322 -0.0133088 -0.0130196 -0.0132322 -0.0138304 -0.0140548 -0.0132322 -0.0133088 -0.0140548 -0.0141363 0.00294395 -0.00101193 0.00401741 -0.00120586 -0.00101193 -0.00168603 -0.00120586 -0.0017859 0.00401741 -0.00120586 0.00528117 -0.00143424 -0.00120586 -0.0017859 -0.00143424 -0.00190429 -0.00168603 -0.00321384 -0.0017859 -0.00346008 -0.00321384 -0.00461355 -0.00346008 -0.00495722 -0.0017859 -0.00346008 -0.00190429 -0.00375087 -0.00346008 -0.00495722 -0.00375087 -0.00536255 0.00528117 -0.00143424 0.00675119 -0.00170032 -0.00143424 -0.00190429 -0.00170032 -0.00204387 0.00675119 -0.00170032 0.00844637 -0.00200811 -0.00170032 -0.00204387 -0.00200811 -0.00220815 -0.00190429 -0.00375087 -0.00204387 -0.00409185 -0.00375087 -0.00536255 -0.00409185 -0.00583718 -0.00204387 -0.00409185 -0.00220815 -0.00449023 -0.00409185 -0.00583718 -0.00449023 -0.00639084 -0.00461355 -0.00599353 -0.00495722 -0.00643843 -0.00599353 -0.0072978 -0.00643843 -0.00783479 -0.00495722 -0.00643843 -0.00536255 -0.00696218 -0.00643843 -0.00783479 -0.00696218 -0.00846565 -0.0072978 -0.00851781 -0.00783479 -0.00913877 -0.00851781 -0.00963974 -0.00913877 -0.0103355 -0.00783479 -0.00913877 -0.00846565 -0.00986664 -0.00913877 -0.0103355 -0.00986664 -0.0111491 -0.00536255 -0.00696218 -0.00583718 -0.00757415 -0.00696218 -0.00846565 -0.00757415 -0.00920094 -0.00583718 -0.00757415 -0.00639084 -0.00828613 -0.00757415 -0.00920094 -0.00828613 -0.0100538 -0.00846565 -0.00986664 -0.00920094 -0.0107127 -0.00986664 -0.0111491 -0.0107127 -0.012092 -0.00920094 -0.0107127 -0.0100538 -0.0116906 -0.0107127 -0.012092 -0.0116906 -0.0131781 0.00844637 -0.00200811 0.010389 -0.00236246 -0.00200811 -0.00220815 -0.00236246 -0.00240171 0.010389 -0.00236246 0.0126052 -0.00276934 -0.00236246 -0.00240171 -0.00276934 -0.00263065 -0.00220815 -0.00449023 -0.00240171 -0.00495528 -0.00449023 -0.00639084 -0.00495528 -0.00703595 -0.00240171 -0.00495528 -0.00263065 -0.00549902 -0.00495528 -0.00703595 -0.00549902 -0.0077885 0.0126052 -0.00276934 0.0151259 -0.00323615 -0.00276934 -0.00263065 -0.00323615 -0.00290317 0.0151259 -0.00323615 0.0179878 -0.00377216 -0.00323615 -0.00290317 -0.00377216 -0.00323044 -0.00263065 -0.00549902 -0.00290317 -0.00613723 -0.00549902 -0.0077885 -0.00613723 -0.00866934 -0.00290317 -0.00613723 -0.00323044 -0.00689097 -0.00613723 -0.00866934 -0.00689097 -0.00970597 -0.00639084 -0.00828613 -0.00703595 -0.009113 -0.00828613 -0.0100538 -0.009113 -0.0110406 -0.00703595 -0.009113 -0.0077885 -0.0100738 -0.009113 -0.0110406 -0.0100738 -0.012182 -0.0100538 -0.0116906 -0.0110406 -0.0128175 -0.0116906 -0.0131781 -0.0128175 -0.0144241 -0.0110406 -0.0128175 -0.012182 -0.0141143 -0.0128175 -0.0144241 -0.0141143 -0.0158503 -0.0077885 -0.0100738 -0.00866934 -0.0111928 -0.0100738 -0.012182 -0.0111928 -0.013504 -0.00866934 -0.0111928 -0.00970597 -0.0125019 -0.0111928 -0.013504 -0.0125019 -0.0150399 -0.012182 -0.0141143 -0.013504 -0.0156071 -0.0141143 -0.0158503 -0.0156071 -0.0174813 -0.013504 -0.0156071 -0.0150399 -0.0173282 -0.0156071 -0.0174813 -0.0173282 -0.0193469 -0.00963974 -0.0106532 -0.0103355 -0.0114142 -0.0106532 -0.011549 -0.0114142 -0.012366 -0.0103355 -0.0114142 -0.0111491 -0.0123021 -0.0114142 -0.012366 -0.0123021 -0.0133169 -0.011549 -0.0123199 -0.012366 -0.0131835 -0.0123199 -0.01296 -0.0131835 -0.0138613 -0.012366 -0.0131835 -0.0133169 -0.0141865 -0.0131835 -0.0138613 -0.0141865 -0.0149062 -0.0111491 -0.0123021 -0.012092 -0.0133281 -0.0123021 -0.0133169 -0.0133281 -0.0144125 -0.012092 -0.0133281 -0.0131781 -0.0145057 -0.0133281 -0.0144125 -0.0145057 -0.0156656 -0.0133169 -0.0141865 -0.0144125 -0.0153392 -0.0141865 -0.0149062 -0.0153392 -0.0161042 -0.0144125 -0.0153392 -0.0156656 -0.0166532 -0.0153392 -0.0161042 -0.0166532 -0.017466 -0.01296 -0.0134646 -0.0138613 -0.0143952 -0.0134646 -0.0138304 -0.0143952 -0.0147821 -0.0138613 -0.0143952 -0.0149062 -0.0154723 -0.0143952 -0.0147821 -0.0154723 -0.0158824 -0.0138304 -0.0140548 -0.0147821 -0.0150198 -0.0140548 -0.0141363 -0.0150198 -0.0151071 -0.0147821 -0.0150198 -0.0158824 -0.0161348 -0.0150198 -0.0151071 -0.0161348 -0.0162285 -0.0149062 -0.0154723 -0.0161042 -0.0167049 -0.0154723 -0.0158824 -0.0167049 -0.0171398 -0.0161042 -0.0167049 -0.017466 -0.0181027 -0.0167049 -0.0171398 -0.0181027 -0.0185633 -0.0158824 -0.0161348 -0.0171398 -0.017408 -0.0161348 -0.0162285 -0.017408 -0.0175088 -0.0171398 -0.017408 -0.0185633 -0.0188479 -0.017408 -0.0175088 -0.0188479 -0.0189563 -0.0131781 -0.0145057 -0.0144241 -0.0158506 -0.0145057 -0.0156656 -0.0158506 -0.0170907 -0.0144241 -0.0158506 -0.0158503 -0.0173817 -0.0158506 -0.0170907 -0.0173817 -0.0187046 -0.0156656 -0.0166532 -0.0170907 -0.0181417 -0.0166532 -0.017466 -0.0181417 -0.0190031 -0.0170907 -0.0181417 -0.0187046 -0.0198192 -0.0181417 -0.0190031 -0.0198192 -0.0207281 -0.0158503 -0.0173817 -0.0174813 -0.0191212 -0.0173817 -0.0187046 -0.0191212 -0.0205265 -0.0174813 -0.0191212 -0.0193469 -0.0210951 -0.0191212 -0.0205265 -0.0210951 -0.0225779 -0.0187046 -0.0198192 -0.0205265 -0.0217016 -0.0198192 -0.0207281 -0.0217016 -0.0226539 -0.0205265 -0.0217016 -0.0225779 -0.0238063 -0.0217016 -0.0226539 -0.0238063 -0.0247935 -0.017466 -0.0181027 -0.0190031 -0.0196761 -0.0181027 -0.0185633 -0.0196761 -0.0201622 -0.0190031 -0.0196761 -0.0207281 -0.0214355 -0.0196761 -0.0201622 -0.0214355 -0.0219455 -0.0185633 -0.0188479 -0.0201622 -0.020463 -0.0188479 -0.0189563 -0.020463 -0.0205794 -0.0201622 -0.020463 -0.0219455 -0.0222617 -0.020463 -0.0205794 -0.0222617 -0.0223861 -0.0207281 -0.0214355 -0.0226539 -0.0233914 -0.0214355 -0.0219455 -0.0233914 -0.0239217 -0.0226539 -0.0233914 -0.0247935 -0.0255532 -0.0233914 -0.0239217 -0.0255532 -0.0260977 -0.0219455 -0.0222617 -0.0239217 -0.0242511 -0.0222617 -0.0223861 -0.0242511 -0.0243831 -0.0239217 -0.0242511 -0.0260977 -0.0264364 -0.0242511 -0.0243831 -0.0264364 -0.0265752 -0.00022532 -0.000224377 -0.00727104 -0.00723666 -0.000224377 -0.000220841 -0.00723666 -0.0071248 -0.00727104 -0.00723666 -0.0101741 -0.0101248 -0.00723666 -0.0071248 -0.0101248 -0.00996805 -0.000220841 -0.000214736 -0.0071248 -0.00693638 -0.000214736 -0.000206113 -0.00693638 -0.00667305 -0.0071248 -0.00693638 -0.00996805 -0.00970507 -0.00693638 -0.00667305 -0.00970507 -0.00933822 -0.0101741 -0.0101248 -0.0111395 -0.0110854 -0.0101248 -0.00996805 -0.0110854 -0.010914 -0.0111395 -0.0110854 -0.0115991 -0.0115432 -0.0110854 -0.010914 -0.0115432 -0.0113658 -0.00996805 -0.00970507 -0.010914 -0.010627 -0.00970507 -0.00933822 -0.010627 -0.0102266 -0.010914 -0.010627 -0.0113658 -0.0110683 -0.010627 -0.0102266 -0.0110683 -0.0106531 -0.000206113 -0.000195051 -0.00667305 -0.00633723 -0.000195051 -0.000181658 -0.00633723 -0.0059321 -0.00667305 -0.00633723 -0.00933822 -0.00887086 -0.00633723 -0.0059321 -0.00887086 -0.00830738 -0.000181658 -0.000166069 -0.0059321 -0.00546162 -0.000166069 -0.000148454 -0.00546162 -0.00493043 -0.0059321 -0.00546162 -0.00830738 -0.00765325 -0.00546162 -0.00493043 -0.00765325 -0.00691488 -0.00933822 -0.00887086 -0.0102266 -0.0097166 -0.00887086 -0.00830738 -0.0097166 -0.00910164 -0.0102266 -0.0097166 -0.0106531 -0.0101238 -0.0097166 -0.00910164 -0.0101238 -0.00948528 -0.00830738 -0.00765325 -0.00910164 -0.0083876 -0.00765325 -0.00691488 -0.0083876 -0.00758143 -0.00910164 -0.0083876 -0.00948528 -0.00874339 -0.0083876 -0.00758143 -0.00874339 -0.00790524 -0.0115991 -0.0115432 -0.0120548 -0.0119976 -0.0115432 -0.0113658 -0.0119976 -0.0118148 -0.0120548 -0.0119976 -0.0126175 -0.0125588 -0.0119976 -0.0118148 -0.0125588 -0.0123695 -0.0113658 -0.0110683 -0.0118148 -0.0115075 -0.0110683 -0.0106531 -0.0115075 -0.0110784 -0.0118148 -0.0115075 -0.0123695 -0.0120507 -0.0115075 -0.0110784 -0.0120507 -0.0116047 -0.0126175 -0.0125588 -0.0133088 -0.0132485 -0.0125588 -0.0123695 -0.0132485 -0.0130515 -0.0133088 -0.0132485 -0.0141363 -0.0140743 -0.0132485 -0.0130515 -0.0140743 -0.0138686 -0.0123695 -0.0120507 -0.0130515 -0.0127189 -0.0120507 -0.0116047 -0.0127189 -0.0122529 -0.0130515 -0.0127189 -0.0138686 -0.0135202 -0.0127189 -0.0122529 -0.0135202 -0.0130309 -0.0106531 -0.0101238 -0.0110784 -0.0105308 -0.0101238 -0.00948528 -0.0105308 -0.00986946 -0.0110784 -0.0105308 -0.0116047 -0.0110349 -0.0105308 -0.00986946 -0.0110349 -0.010346 -0.00948528 -0.00874339 -0.00986946 -0.00910036 -0.00874339 -0.00790524 -0.00910036 -0.00823063 -0.00986946 -0.00910036 -0.010346 -0.00954363 -0.00910036 -0.00823063 -0.00954363 -0.00863513 -0.0116047 -0.0110349 -0.0122529 -0.0116564 -0.0110349 -0.010346 -0.0116564 -0.010934 -0.0122529 -0.0116564 -0.0130309 -0.0124034 -0.0116564 -0.010934 -0.0124034 -0.0116419 -0.010346 -0.00954363 -0.010934 -0.0100914 -0.00954363 -0.00863513 -0.0100914 -0.00913564 -0.010934 -0.0100914 -0.0116419 -0.0107518 -0.0100914 -0.00913564 -0.0107518 -0.00974016 -0.000148454 -0.000128954 -0.00493043 -0.00434435 -0.000128954 -0.000108014 -0.00434435 -0.00370797 -0.00493043 -0.00434435 -0.00691488 -0.00610017 -0.00434435 -0.00370797 -0.00610017 -0.00521576 -0.000108014 -8.47851e-05 -0.00370797 -0.00303649 -8.47851e-05 -6.43662e-05 -0.00303649 -0.00229727 -0.00370797 -0.00303649 -0.00521576 -0.00428009 -0.00303649 -0.00229727 -0.00428009 -0.00325652 -0.00691488 -0.00610017 -0.00758143 -0.00669158 -0.00610017 -0.00521576 -0.00669158 -0.0057254 -0.00758143 -0.00669158 -0.00790524 -0.00697951 -0.00669158 -0.0057254 -0.00697951 -0.00597388 -0.00521576 -0.00428009 -0.0057254 -0.00470231 -0.00428009 -0.00325652 -0.00470231 -0.0035869 -0.0057254 -0.00470231 -0.00597388 -0.0049085 -0.00470231 -0.0035869 -0.0049085 -0.00374838 -6.43662e-05 -4.09071e-05 -0.00229727 -0.00170454 -4.09071e-05 9.29906e-05 -0.00170454 -0.000178801 -0.00229727 -0.00170454 -0.00325652 -0.0024011 -0.00170454 -0.000178801 -0.0024011 -0.000506738 9.29906e-05 -8.49109e-05 -0.000178801 -0.0033805 -8.49109e-05 0.0254617 -0.0033805 0.0226705 -0.000178801 -0.0033805 -0.000506738 -0.00367384 -0.0033805 0.0226705 -0.00367384 0.0240408 -0.00325652 -0.0024011 -0.0035869 -0.00264283 -0.0024011 -0.000506738 -0.00264283 -0.00063254 -0.0035869 -0.00264283 -0.00374838 -0.00276005 -0.00264283 -0.00063254 -0.00276005 -0.000690793 -0.000506738 -0.00367384 -0.00063254 -0.00381438 -0.00367384 0.0240408 -0.00381438 0.0240827 -0.00063254 -0.00381438 -0.000690793 -0.00387583 -0.00381438 0.0240827 -0.00387583 0.0243408 -0.00790524 -0.00697951 -0.00823063 -0.00726913 -0.00697951 -0.00597388 -0.00726913 -0.0062238 -0.00823063 -0.00726913 -0.00863513 -0.00762951 -0.00726913 -0.0062238 -0.00762951 -0.00653491 -0.00597388 -0.0049085 -0.0062238 -0.00511539 -0.0049085 -0.00374838 -0.00511539 -0.00390838 -0.0062238 -0.00511539 -0.00653491 -0.00537276 -0.00511539 -0.00390838 -0.00537276 -0.0041068 -0.00863513 -0.00762951 -0.00913564 -0.00807597 -0.00762951 -0.00653491 -0.00807597 -0.00692076 -0.00913564 -0.00807597 -0.00974016 -0.0086161 -0.00807597 -0.00692076 -0.0086161 -0.00738829 -0.00653491 -0.00537276 -0.00692076 -0.00569223 -0.00537276 -0.0041068 -0.00569223 -0.00435337 -0.00692076 -0.00569223 -0.00738829 -0.00607992 -0.00569223 -0.00435337 -0.00607992 -0.00465312 -0.00374838 -0.00276005 -0.00390838 -0.00287372 -0.00276005 -0.000690793 -0.00287372 -0.000735967 -0.00390838 -0.00287372 -0.0041068 -0.00301489 -0.00287372 -0.000735967 -0.00301489 -0.000792985 -0.000690793 -0.00387583 -0.000735967 -0.00395144 -0.00387583 0.0243408 -0.00395144 0.024774 -0.000735967 -0.00395144 -0.000792985 -0.00405762 -0.00395144 0.024774 -0.00405762 0.0253543 -0.0041068 -0.00301489 -0.00435337 -0.00319113 -0.00301489 -0.000792985 -0.00319113 -0.000865123 -0.00435337 -0.00319113 -0.00465312 -0.00340599 -0.00319113 -0.000865123 -0.00340599 -0.000953569 -0.000792985 -0.00405762 -0.000865123 -0.00419269 -0.00405762 0.0253543 -0.00419269 0.0260952 -0.000865123 -0.00419269 -0.000953569 -0.0043584 -0.00419269 0.0260952 -0.0043584 0.027004 -0.0141363 -0.0140743 -0.0151071 -0.0150432 -0.0140743 -0.0138686 -0.0150432 -0.0148279 -0.0151071 -0.0150432 -0.0162285 -0.0161629 -0.0150432 -0.0148279 -0.0161629 -0.0159375 -0.0138686 -0.0135202 -0.0148279 -0.014462 -0.0135202 -0.0130309 -0.014462 -0.0139466 -0.0148279 -0.014462 -0.0159375 -0.0155527 -0.014462 -0.0139466 -0.0155527 -0.0150091 -0.0162285 -0.0161629 -0.0175088 -0.0174417 -0.0161629 -0.0159375 -0.0174417 -0.0172061 -0.0175088 -0.0174417 -0.0189563 -0.0188882 -0.0174417 -0.0172061 -0.0188882 -0.0186429 -0.0159375 -0.0155527 -0.0172061 -0.0168017 -0.0155527 -0.0150091 -0.0168017 -0.0162283 -0.0172061 -0.0168017 -0.0186429 -0.0182191 -0.0168017 -0.0162283 -0.0182191 -0.0176155 -0.0130309 -0.0124034 -0.0139466 -0.0132842 -0.0124034 -0.0116419 -0.0132842 -0.0124782 -0.0139466 -0.0132842 -0.0150091 -0.0143082 -0.0132842 -0.0124782 -0.0143082 -0.0134528 -0.0116419 -0.0107518 -0.0124782 -0.0115337 -0.0107518 -0.00974016 -0.0115337 -0.0104573 -0.0124782 -0.0115337 -0.0134528 -0.0124471 -0.0115337 -0.0104573 -0.0124471 -0.0112973 -0.0150091 -0.0143082 -0.0162283 -0.0154863 -0.0143082 -0.0134528 -0.0154863 -0.0145774 -0.0162283 -0.0154863 -0.0176155 -0.0168311 -0.0154863 -0.0145774 -0.0168311 -0.0158656 -0.0134528 -0.0124471 -0.0145774 -0.0135045 -0.0124471 -0.0112973 -0.0135045 -0.0122728 -0.0145774 -0.0135045 -0.0158656 -0.0147204 -0.0135045 -0.0122728 -0.0147204 -0.0133991 -0.0189563 -0.0188882 -0.0205794 -0.0205113 -0.0188882 -0.0186429 -0.0205113 -0.0202574 -0.0205794 -0.0205113 -0.0223861 -0.0223191 -0.0205113 -0.0202574 -0.0223191 -0.022059 -0.0186429 -0.0182191 -0.0202574 -0.0198157 -0.0182191 -0.0176155 -0.0198157 -0.0191831 -0.0202574 -0.0198157 -0.022059 -0.0216023 -0.0198157 -0.0191831 -0.0216023 -0.0209439 -0.0223861 -0.0223191 -0.0243831 -0.0243189 -0.0223191 -0.022059 -0.0243189 -0.0240561 -0.0243831 -0.0243189 -0.0265752 -0.0265159 -0.0243189 -0.0240561 -0.0265159 -0.0262556 -0.022059 -0.0216023 -0.0240561 -0.0235895 -0.0216023 -0.0209439 -0.0235895 -0.0229115 -0.0240561 -0.0235895 -0.0262556 -0.0257871 -0.0235895 -0.0229115 -0.0257871 -0.0250993 -0.0176155 -0.0168311 -0.0191831 -0.0183564 -0.0168311 -0.0158656 -0.0183564 -0.0173332 -0.0191831 -0.0183564 -0.020