# vtk DataFile Version 3.0
#This file was generated by the deal.II library on 2026/1/5 at 14:19:36
ASCII
DATASET UNSTRUCTURED_GRID

POINTS 4096 double
0 0 0
0.03125 0 0
0 0.03125 0
0.03125 0.03125 0
0.03125 0 0
0.0625 0 0
0.03125 0.03125 0
0.0625 0.03125 0
0 0.03125 0
0.03125 0.03125 0
0 0.0625 0
0.03125 0.0625 0
0.03125 0.03125 0
0.0625 0.03125 0
0.03125 0.0625 0
0.0625 0.0625 0
0.0625 0 0
0.09375 0 0
0.0625 0.03125 0
0.09375 0.03125 0
0.09375 0 0
0.125 0 0
0.09375 0.03125 0
0.125 0.03125 0
0.0625 0.03125 0
0.09375 0.03125 0
0.0625 0.0625 0
0.09375 0.0625 0
0.09375 0.03125 0
0.125 0.03125 0
0.09375 0.0625 0
0.125 0.0625 0
0 0.0625 0
0.03125 0.0625 0
0 0.09375 0
0.03125 0.09375 0
0.03125 0.0625 0
0.0625 0.0625 0
0.03125 0.09375 0
0.0625 0.09375 0
0 0.09375 0
0.03125 0.09375 0
0 0.125 0
0.03125 0.125 0
0.03125 0.09375 0
0.0625 0.09375 0
0.03125 0.125 0
0.0625 0.125 0
0.0625 0.0625 0
0.09375 0.0625 0
0.0625 0.09375 0
0.09375 0.09375 0
0.09375 0.0625 0
0.125 0.0625 0
0.09375 0.09375 0
0.125 0.09375 0
0.0625 0.09375 0
0.09375 0.09375 0
0.0625 0.125 0
0.09375 0.125 0
0.09375 0.09375 0
0.125 0.09375 0
0.09375 0.125 0
0.125 0.125 0
0.125 0 0
0.15625 0 0
0.125 0.03125 0
0.15625 0.03125 0
0.15625 0 0
0.1875 0 0
0.15625 0.03125 0
0.1875 0.03125 0
0.125 0.03125 0
0.15625 0.03125 0
0.125 0.0625 0
0.15625 0.0625 0
0.15625 0.03125 0
0.1875 0.03125 0
0.15625 0.0625 0
0.1875 0.0625 0
0.1875 0 0
0.21875 0 0
0.1875 0.03125 0
0.21875 0.03125 0
0.21875 0 0
0.25 0 0
0.21875 0.03125 0
0.25 0.03125 0
0.1875 0.03125 0
0.21875 0.03125 0
0.1875 0.0625 0
0.21875 0.0625 0
0.21875 0.03125 0
0.25 0.03125 0
0.21875 0.0625 0
0.25 0.0625 0
0.125 0.0625 0
0.15625 0.0625 0
0.125 0.09375 0
0.15625 0.09375 0
0.15625 0.0625 0
0.1875 0.0625 0
0.15625 0.09375 0
0.1875 0.09375 0
0.125 0.09375 0
0.15625 0.09375 0
0.125 0.125 0
0.15625 0.125 0
0.15625 0.09375 0
0.1875 0.09375 0
0.15625 0.125 0
0.1875 0.125 0
0.1875 0.0625 0
0.21875 0.0625 0
0.1875 0.09375 0
0.21875 0.09375 0
0.21875 0.0625 0
0.25 0.0625 0
0.21875 0.09375 0
0.25 0.09375 0
0.1875 0.09375 0
0.21875 0.09375 0
0.1875 0.125 0
0.21875 0.125 0
0.21875 0.09375 0
0.25 0.09375 0
0.21875 0.125 0
0.25 0.125 0
0 0.125 0
0.03125 0.125 0
0 0.15625 0
0.03125 0.15625 0
0.03125 0.125 0
0.0625 0.125 0
0.03125 0.15625 0
0.0625 0.15625 0
0 0.15625 0
0.03125 0.15625 0
0 0.1875 0
0.03125 0.1875 0
0.03125 0.15625 0
0.0625 0.15625 0
0.03125 0.1875 0
0.0625 0.1875 0
0.0625 0.125 0
0.09375 0.125 0
0.0625 0.15625 0
0.09375 0.15625 0
0.09375 0.125 0
0.125 0.125 0
0.09375 0.15625 0
0.125 0.15625 0
0.0625 0.15625 0
0.09375 0.15625 0
0.0625 0.1875 0
0.09375 0.1875 0
0.09375 0.15625 0
0.125 0.15625 0
0.09375 0.1875 0
0.125 0.1875 0
0 0.1875 0
0.03125 0.1875 0
0 0.21875 0
0.03125 0.21875 0
0.03125 0.1875 0
0.0625 0.1875 0
0.03125 0.21875 0
0.0625 0.21875 0
0 0.21875 0
0.03125 0.21875 0
0 0.25 0
0.03125 0.25 0
0.03125 0.21875 0
0.0625 0.21875 0
0.03125 0.25 0
0.0625 0.25 0
0.0625 0.1875 0
0.09375 0.1875 0
0.0625 0.21875 0
0.09375 0.21875 0
0.09375 0.1875 0
0.125 0.1875 0
0.09375 0.21875 0
0.125 0.21875 0
0.0625 0.21875 0
0.09375 0.21875 0
0.0625 0.25 0
0.09375 0.25 0
0.09375 0.21875 0
0.125 0.21875 0
0.09375 0.25 0
0.125 0.25 0
0.125 0.125 0
0.15625 0.125 0
0.125 0.15625 0
0.15625 0.15625 0
0.15625 0.125 0
0.1875 0.125 0
0.15625 0.15625 0
0.1875 0.15625 0
0.125 0.15625 0
0.15625 0.15625 0
0.125 0.1875 0
0.15625 0.1875 0
0.15625 0.15625 0
0.1875 0.15625 0
0.15625 0.1875 0
0.1875 0.1875 0
0.1875 0.125 0
0.21875 0.125 0
0.1875 0.15625 0
0.21875 0.15625 0
0.21875 0.125 0
0.25 0.125 0
0.21875 0.15625 0
0.25 0.15625 0
0.1875 0.15625 0
0.21875 0.15625 0
0.1875 0.1875 0
0.21875 0.1875 0
0.21875 0.15625 0
0.25 0.15625 0
0.21875 0.1875 0
0.25 0.1875 0
0.125 0.1875 0
0.15625 0.1875 0
0.125 0.21875 0
0.15625 0.21875 0
0.15625 0.1875 0
0.1875 0.1875 0
0.15625 0.21875 0
0.1875 0.21875 0
0.125 0.21875 0
0.15625 0.21875 0
0.125 0.25 0
0.15625 0.25 0
0.15625 0.21875 0
0.1875 0.21875 0
0.15625 0.25 0
0.1875 0.25 0
0.1875 0.1875 0
0.21875 0.1875 0
0.1875 0.21875 0
0.21875 0.21875 0
0.21875 0.1875 0
0.25 0.1875 0
0.21875 0.21875 0
0.25 0.21875 0
0.1875 0.21875 0
0.21875 0.21875 0
0.1875 0.25 0
0.21875 0.25 0
0.21875 0.21875 0
0.25 0.21875 0
0.21875 0.25 0
0.25 0.25 0
0.25 0 0
0.28125 0 0
0.25 0.03125 0
0.28125 0.03125 0
0.28125 0 0
0.3125 0 0
0.28125 0.03125 0
0.3125 0.03125 0
0.25 0.03125 0
0.28125 0.03125 0
0.25 0.0625 0
0.28125 0.0625 0
0.28125 0.03125 0
0.3125 0.03125 0
0.28125 0.0625 0
0.3125 0.0625 0
0.3125 0 0
0.34375 0 0
0.3125 0.03125 0
0.34375 0.03125 0
0.34375 0 0
0.375 0 0
0.34375 0.03125 0
0.375 0.03125 0
0.3125 0.03125 0
0.34375 0.03125 0
0.3125 0.0625 0
0.34375 0.0625 0
0.34375 0.03125 0
0.375 0.03125 0
0.34375 0.0625 0
0.375 0.0625 0
0.25 0.0625 0
0.28125 0.0625 0
0.25 0.09375 0
0.28125 0.09375 0
0.28125 0.0625 0
0.3125 0.0625 0
0.28125 0.09375 0
0.3125 0.09375 0
0.25 0.09375 0
0.28125 0.09375 0
0.25 0.125 0
0.28125 0.125 0
0.28125 0.09375 0
0.3125 0.09375 0
0.28125 0.125 0
0.3125 0.125 0
0.3125 0.0625 0
0.34375 0.0625 0
0.3125 0.09375 0
0.34375 0.09375 0
0.34375 0.0625 0
0.375 0.0625 0
0.34375 0.09375 0
0.375 0.09375 0
0.3125 0.09375 0
0.34375 0.09375 0
0.3125 0.125 0
0.34375 0.125 0
0.34375 0.09375 0
0.375 0.09375 0
0.34375 0.125 0
0.375 0.125 0
0.375 0 0
0.40625 0 0
0.375 0.03125 0
0.40625 0.03125 0
0.40625 0 0
0.4375 0 0
0.40625 0.03125 0
0.4375 0.03125 0
0.375 0.03125 0
0.40625 0.03125 0
0.375 0.0625 0
0.40625 0.0625 0
0.40625 0.03125 0
0.4375 0.03125 0
0.40625 0.0625 0
0.4375 0.0625 0
0.4375 0 0
0.46875 0 0
0.4375 0.03125 0
0.46875 0.03125 0
0.46875 0 0
0.5 0 0
0.46875 0.03125 0
0.5 0.03125 0
0.4375 0.03125 0
0.46875 0.03125 0
0.4375 0.0625 0
0.46875 0.0625 0
0.46875 0.03125 0
0.5 0.03125 0
0.46875 0.0625 0
0.5 0.0625 0
0.375 0.0625 0
0.40625 0.0625 0
0.375 0.09375 0
0.40625 0.09375 0
0.40625 0.0625 0
0.4375 0.0625 0
0.40625 0.09375 0
0.4375 0.09375 0
0.375 0.09375 0
0.40625 0.09375 0
0.375 0.125 0
0.40625 0.125 0
0.40625 0.09375 0
0.4375 0.09375 0
0.40625 0.125 0
0.4375 0.125 0
0.4375 0.0625 0
0.46875 0.0625 0
0.4375 0.09375 0
0.46875 0.09375 0
0.46875 0.0625 0
0.5 0.0625 0
0.46875 0.09375 0
0.5 0.09375 0
0.4375 0.09375 0
0.46875 0.09375 0
0.4375 0.125 0
0.46875 0.125 0
0.46875 0.09375 0
0.5 0.09375 0
0.46875 0.125 0
0.5 0.125 0
0.25 0.125 0
0.28125 0.125 0
0.25 0.15625 0
0.28125 0.15625 0
0.28125 0.125 0
0.3125 0.125 0
0.28125 0.15625 0
0.3125 0.15625 0
0.25 0.15625 0
0.28125 0.15625 0
0.25 0.1875 0
0.28125 0.1875 0
0.28125 0.15625 0
0.3125 0.15625 0
0.28125 0.1875 0
0.3125 0.1875 0
0.3125 0.125 0
0.34375 0.125 0
0.3125 0.15625 0
0.34375 0.15625 0
0.34375 0.125 0
0.375 0.125 0
0.34375 0.15625 0
0.375 0.15625 0
0.3125 0.15625 0
0.34375 0.15625 0
0.3125 0.1875 0
0.34375 0.1875 0
0.34375 0.15625 0
0.375 0.15625 0
0.34375 0.1875 0
0.375 0.1875 0
0.25 0.1875 0
0.28125 0.1875 0
0.25 0.21875 0
0.28125 0.21875 0
0.28125 0.1875 0
0.3125 0.1875 0
0.28125 0.21875 0
0.3125 0.21875 0
0.25 0.21875 0
0.28125 0.21875 0
0.25 0.25 0
0.28125 0.25 0
0.28125 0.21875 0
0.3125 0.21875 0
0.28125 0.25 0
0.3125 0.25 0
0.3125 0.1875 0
0.34375 0.1875 0
0.3125 0.21875 0
0.34375 0.21875 0
0.34375 0.1875 0
0.375 0.1875 0
0.34375 0.21875 0
0.375 0.21875 0
0.3125 0.21875 0
0.34375 0.21875 0
0.3125 0.25 0
0.34375 0.25 0
0.34375 0.21875 0
0.375 0.21875 0
0.34375 0.25 0
0.375 0.25 0
0.375 0.125 0
0.40625 0.125 0
0.375 0.15625 0
0.40625 0.15625 0
0.40625 0.125 0
0.4375 0.125 0
0.40625 0.15625 0
0.4375 0.15625 0
0.375 0.15625 0
0.40625 0.15625 0
0.375 0.1875 0
0.40625 0.1875 0
0.40625 0.15625 0
0.4375 0.15625 0
0.40625 0.1875 0
0.4375 0.1875 0
0.4375 0.125 0
0.46875 0.125 0
0.4375 0.15625 0
0.46875 0.15625 0
0.46875 0.125 0
0.5 0.125 0
0.46875 0.15625 0
0.5 0.15625 0
0.4375 0.15625 0
0.46875 0.15625 0
0.4375 0.1875 0
0.46875 0.1875 0
0.46875 0.15625 0
0.5 0.15625 0
0.46875 0.1875 0
0.5 0.1875 0
0.375 0.1875 0
0.40625 0.1875 0
0.375 0.21875 0
0.40625 0.21875 0
0.40625 0.1875 0
0.4375 0.1875 0
0.40625 0.21875 0
0.4375 0.21875 0
0.375 0.21875 0
0.40625 0.21875 0
0.375 0.25 0
0.40625 0.25 0
0.40625 0.21875 0
0.4375 0.21875 0
0.40625 0.25 0
0.4375 0.25 0
0.4375 0.1875 0
0.46875 0.1875 0
0.4375 0.21875 0
0.46875 0.21875 0
0.46875 0.1875 0
0.5 0.1875 0
0.46875 0.21875 0
0.5 0.21875 0
0.4375 0.21875 0
0.46875 0.21875 0
0.4375 0.25 0
0.46875 0.25 0
0.46875 0.21875 0
0.5 0.21875 0
0.46875 0.25 0
0.5 0.25 0
0 0.25 0
0.03125 0.25 0
0 0.28125 0
0.03125 0.28125 0
0.03125 0.25 0
0.0625 0.25 0
0.03125 0.28125 0
0.0625 0.28125 0
0 0.28125 0
0.03125 0.28125 0
0 0.3125 0
0.03125 0.3125 0
0.03125 0.28125 0
0.0625 0.28125 0
0.03125 0.3125 0
0.0625 0.3125 0
0.0625 0.25 0
0.09375 0.25 0
0.0625 0.28125 0
0.09375 0.28125 0
0.09375 0.25 0
0.125 0.25 0
0.09375 0.28125 0
0.125 0.28125 0
0.0625 0.28125 0
0.09375 0.28125 0
0.0625 0.3125 0
0.09375 0.3125 0
0.09375 0.28125 0
0.125 0.28125 0
0.09375 0.3125 0
0.125 0.3125 0
0 0.3125 0
0.03125 0.3125 0
0 0.34375 0
0.03125 0.34375 0
0.03125 0.3125 0
0.0625 0.3125 0
0.03125 0.34375 0
0.0625 0.34375 0
0 0.34375 0
0.03125 0.34375 0
0 0.375 0
0.03125 0.375 0
0.03125 0.34375 0
0.0625 0.34375 0
0.03125 0.375 0
0.0625 0.375 0
0.0625 0.3125 0
0.09375 0.3125 0
0.0625 0.34375 0
0.09375 0.34375 0
0.09375 0.3125 0
0.125 0.3125 0
0.09375 0.34375 0
0.125 0.34375 0
0.0625 0.34375 0
0.09375 0.34375 0
0.0625 0.375 0
0.09375 0.375 0
0.09375 0.34375 0
0.125 0.34375 0
0.09375 0.375 0
0.125 0.375 0
0.125 0.25 0
0.15625 0.25 0
0.125 0.28125 0
0.15625 0.28125 0
0.15625 0.25 0
0.1875 0.25 0
0.15625 0.28125 0
0.1875 0.28125 0
0.125 0.28125 0
0.15625 0.28125 0
0.125 0.3125 0
0.15625 0.3125 0
0.15625 0.28125 0
0.1875 0.28125 0
0.15625 0.3125 0
0.1875 0.3125 0
0.1875 0.25 0
0.21875 0.25 0
0.1875 0.28125 0
0.21875 0.28125 0
0.21875 0.25 0
0.25 0.25 0
0.21875 0.28125 0
0.25 0.28125 0
0.1875 0.28125 0
0.21875 0.28125 0
0.1875 0.3125 0
0.21875 0.3125 0
0.21875 0.28125 0
0.25 0.28125 0
0.21875 0.3125 0
0.25 0.3125 0
0.125 0.3125 0
0.15625 0.3125 0
0.125 0.34375 0
0.15625 0.34375 0
0.15625 0.3125 0
0.1875 0.3125 0
0.15625 0.34375 0
0.1875 0.34375 0
0.125 0.34375 0
[...]
POINT_DATA 4096
SCALARS u_x double 1
LOOKUP_TABLE default
3.29289e-05 1.5771e-05 -4.32109e-06 -5.10428e-05 1.5771e-05 2.30645e-05 -5.10428e-05 -0.000381588 -4.32109e-06 -5.10428e-05 -0.000124035 -0.000216493 -5.10428e-05 -0.000381588 -0.000216493 -0.000966353 2.30645e-05 2.0028e-05 -0.000381588 -0.000996125 2.0028e-05 1.07772e-05 -0.000996125 -0.00185337 -0.000381588 -0.000996125 -0.000966353 -0.00214607 -0.000996125 -0.00185337 -0.00214607 -0.00370036 -0.000124035 -0.000216493 -0.00025549 -0.000373448 -0.000216493 -0.000966353 -0.000373448 -0.00152659 -0.00025549 -0.000373448 -0.000351272 -0.000500915 -0.000373448 -0.00152659 -0.000500915 -0.00199474 -0.000966353 -0.00214607 -0.00152659 -0.00321294 -0.00214607 -0.00370036 -0.00321294 -0.00535363 -0.00152659 -0.00321294 -0.00199474 -0.00411661 -0.00321294 -0.00535363 -0.00411661 -0.0067526 1.07772e-05 -1.09488e-06 -0.00185337 -0.00287073 -1.09488e-06 -1.36758e-05 -0.00287073 -0.00397372 -0.00185337 -0.00287073 -0.00370036 -0.00550588 -0.00287073 -0.00397372 -0.00550588 -0.00744975 -1.36758e-05 -2.60468e-05 -0.00397372 -0.00510162 -2.60468e-05 -3.7775e-05 -0.00510162 -0.00620832 -0.00397372 -0.00510162 -0.00744975 -0.00943419 -0.00510162 -0.00620832 -0.00943419 -0.0113815 -0.00370036 -0.00550588 -0.00535363 -0.00779214 -0.00550588 -0.00744975 -0.00779214 -0.0103931 -0.00535363 -0.00779214 -0.0067526 -0.00971283 -0.00779214 -0.0103931 -0.00971283 -0.0128433 -0.00744975 -0.00943419 -0.0103931 -0.013037 -0.00943419 -0.0113815 -0.013037 -0.0156262 -0.0103931 -0.013037 -0.0128433 -0.0160094 -0.013037 -0.0156262 -0.0160094 -0.0191012 -0.000351272 -0.000500915 -0.000386974 -0.000604769 -0.000500915 -0.00199474 -0.000604769 -0.00237039 -0.000386974 -0.000604769 -0.000350426 -0.000696082 -0.000604769 -0.00237039 -0.000696082 -0.00267652 -0.00199474 -0.00411661 -0.00237039 -0.00486015 -0.00411661 -0.0067526 -0.00486015 -0.00791656 -0.00237039 -0.00486015 -0.00267652 -0.0054826 -0.00486015 -0.00791656 -0.0054826 -0.00890423 -0.000350426 -0.000696082 -0.000234977 -0.000785247 -0.000696082 -0.00267652 -0.000785247 -0.00294056 -0.000234977 -0.000785247 -3.62616e-05 -0.000880958 -0.000785247 -0.00294056 -0.000880958 -0.00318781 -0.00267652 -0.0054826 -0.00294056 -0.00603273 -0.0054826 -0.00890423 -0.00603273 -0.00978688 -0.00294056 -0.00603273 -0.00318781 -0.00655731 -0.00603273 -0.00978688 -0.00655731 -0.0106335 -0.0067526 -0.00971283 -0.00791656 -0.0113179 -0.00971283 -0.0128433 -0.0113179 -0.0148911 -0.00791656 -0.0113179 -0.00890423 -0.0126922 -0.0113179 -0.0148911 -0.0126922 -0.0166533 -0.0128433 -0.0160094 -0.0148911 -0.0184889 -0.0160094 -0.0191012 -0.0184889 -0.021992 -0.0148911 -0.0184889 -0.0166533 -0.0206279 -0.0184889 -0.021992 -0.0206279 -0.0244887 -0.00890423 -0.0126922 -0.00978688 -0.0139315 -0.0126922 -0.0166533 -0.0139315 -0.0182527 -0.00978688 -0.0139315 -0.0106335 -0.0151276 -0.0139315 -0.0182527 -0.0151276 -0.019804 -0.0166533 -0.0206279 -0.0182527 -0.022578 -0.0206279 -0.0244887 -0.022578 -0.0267724 -0.0182527 -0.022578 -0.019804 -0.0244773 -0.022578 -0.0267724 -0.0244773 -0.0290042 -3.7775e-05 -4.86796e-05 -0.00620832 -0.00725969 -4.86796e-05 -5.86855e-05 -0.00725969 -0.00823046 -0.00620832 -0.00725969 -0.0113815 -0.0132318 -0.00725969 -0.00823046 -0.0132318 -0.0149398 -5.86855e-05 -6.77413e-05 -0.00823046 -0.00910127 -6.77413e-05 -7.57836e-05 -0.00910127 -0.00985654 -0.00823046 -0.00910127 -0.0149398 -0.01647 -0.00910127 -0.00985654 -0.01647 -0.0177941 -0.0113815 -0.0132318 -0.0156262 -0.0180839 -0.0132318 -0.0149398 -0.0180839 -0.0203502 -0.0156262 -0.0180839 -0.0191012 -0.0220309 -0.0180839 -0.0203502 -0.0220309 -0.0247292 -0.0149398 -0.01647 -0.0203502 -0.0223781 -0.01647 -0.0177941 -0.0223781 -0.0241295 -0.0203502 -0.0223781 -0.0247292 -0.027141 -0.0223781 -0.0241295 -0.027141 -0.0292216 -7.57836e-05 -8.27235e-05 -0.00985654 -0.010483 -8.27235e-05 -8.84418e-05 -0.010483 -0.0109689 -0.00985654 -0.010483 -0.0177941 -0.0188881 -0.010483 -0.0109689 -0.0188881 -0.0197317 -8.84418e-05 -9.27924e-05 -0.0109689 -0.0113038 -9.27924e-05 -9.56145e-05 -0.0113038 -0.0114784 -0.0109689 -0.0113038 -0.0197317 -0.0203068 -0.0113038 -0.0114784 -0.0203068 -0.0205981 -0.0177941 -0.0188881 -0.0241295 -0.0255727 -0.0188881 -0.0197317 -0.0255727 -0.0266806 -0.0241295 -0.0255727 -0.0292216 -0.0309337 -0.0255727 -0.0266806 -0.0309337 -0.0322455 -0.0197317 -0.0203068 -0.0266806 -0.0274301 -0.0203068 -0.0205981 -0.0274301 -0.0278017 -0.0266806 -0.0274301 -0.0322455 -0.0331299 -0.0274301 -0.0278017 -0.0331299 -0.0335643 -0.0191012 -0.0220309 -0.021992 -0.0253055 -0.0220309 -0.0247292 -0.0253055 -0.028354 -0.021992 -0.0253055 -0.0244887 -0.0281352 -0.0253055 -0.028354 -0.0281352 -0.0314881 -0.0247292 -0.027141 -0.028354 -0.0310774 -0.027141 -0.0292216 -0.0310774 -0.0334264 -0.028354 -0.0310774 -0.0314881 -0.0344839 -0.0310774 -0.0334264 -0.0344839 -0.0370705 -0.0244887 -0.0281352 -0.0267724 -0.0307306 -0.0281352 -0.0314881 -0.0307306 -0.0343701 -0.0267724 -0.0307306 -0.0290042 -0.0332748 -0.0307306 -0.0343701 -0.0332748 -0.0372042 -0.0314881 -0.0344839 -0.0343701 -0.0376253 -0.0344839 -0.0370705 -0.0376253 -0.0404422 -0.0343701 -0.0376253 -0.0372042 -0.0407254 -0.0376253 -0.0404422 -0.0407254 -0.043783 -0.0292216 -0.0309337 -0.0334264 -0.0353598 -0.0309337 -0.0322455 -0.0353598 -0.0368424 -0.0334264 -0.0353598 -0.0370705 -0.0392039 -0.0353598 -0.0368424 -0.0392039 -0.040846 -0.0322455 -0.0331299 -0.0368424 -0.0378438 -0.0331299 -0.0335643 -0.0378438 -0.0383385 -0.0368424 -0.0378438 -0.040846 -0.0419636 -0.0378438 -0.0383385 -0.0419636 -0.0425283 -0.0370705 -0.0392039 -0.0404422 -0.0427747 -0.0392039 -0.040846 -0.0427747 -0.0445824 -0.0404422 -0.0427747 -0.043783 -0.0463295 -0.0427747 -0.0445824 -0.0463295 -0.0483221 -0.040846 -0.0419636 -0.0445824 -0.0458292 -0.0419636 -0.0425283 -0.0458292 -0.0464829 -0.0445824 -0.0458292 -0.0483221 -0.0497217 -0.0458292 -0.0464829 -0.0497217 -0.0504918 -3.62616e-05 -0.000880958 0.000249679 -0.000990173 -0.000880958 -0.00318781 -0.000990173 -0.00343928 0.000249679 -0.000990173 0.000627464 -0.00111845 -0.000990173 -0.00343928 -0.00111845 -0.00371169 -0.00318781 -0.00655731 -0.00343928 -0.00709646 -0.00655731 -0.0106335 -0.00709646 -0.0115043 -0.00343928 -0.00709646 -0.00371169 -0.00768284 -0.00709646 -0.0115043 -0.00768284 -0.0124489 0.000627464 -0.00111845 0.00110295 -0.00127044 -0.00111845 -0.00371169 -0.00127044 -0.00401831 0.00110295 -0.00127044 0.00168355 -0.00145035 -0.00127044 -0.00401831 -0.00145035 -0.00437029 -0.00371169 -0.00768284 -0.00401831 -0.00834292 -0.00768284 -0.0124489 -0.00834292 -0.0135074 -0.00401831 -0.00834292 -0.00437029 -0.00909913 -0.00834292 -0.0135074 -0.00909913 -0.0147142 -0.0106335 -0.0151276 -0.0115043 -0.0163605 -0.0151276 -0.019804 -0.0163605 -0.0214064 -0.0115043 -0.0163605 -0.0124489 -0.0176962 -0.0163605 -0.0214064 -0.0176962 -0.0231411 -0.019804 -0.0244773 -0.0214064 -0.0264431 -0.0244773 -0.0290042 -0.0264431 -0.0313188 -0.0214064 -0.0264431 -0.0231411 -0.0285707 -0.0264431 -0.0313188 -0.0285707 -0.0338241 -0.0124489 -0.0176962 -0.0135074 -0.0191883 -0.0176962 -0.0231411 -0.0191883 -0.0250739 -0.0135074 -0.0191883 -0.0147142 -0.020882 -0.0191883 -0.0250739 -0.020882 -0.0272589 -0.0231411 -0.0285707 -0.0250739 -0.030936 -0.0285707 -0.0338241 -0.030936 -0.0366047 -0.0250739 -0.030936 -0.0272589 -0.0336001 -0.030936 -0.0366047 -0.0336001 -0.0397267 0.00168355 -0.00145035 0.00237847 -0.00166249 -0.00145035 -0.00437029 -0.00166249 -0.00477817 0.00237847 -0.00166249 0.00319894 -0.00191179 -0.00166249 -0.00477817 -0.00191179 -0.00525336 -0.00437029 -0.00909913 -0.00477817 -0.00997258 -0.00909913 -0.0147142 -0.00997258 -0.0161007 -0.00477817 -0.00997258 -0.00525336 -0.0109857 -0.00997258 -0.0161007 -0.0109857 -0.0176996 0.00319894 -0.00191179 0.00415857 -0.00220432 -0.00191179 -0.00525336 -0.00220432 -0.00580981 0.00415857 -0.00220432 0.00527378 -0.00254799 -0.00220432 -0.00580981 -0.00254799 -0.00646571 -0.00525336 -0.0109857 -0.00580981 -0.0121653 -0.0109857 -0.0176996 -0.0121653 -0.0195488 -0.00580981 -0.0121653 -0.00646571 -0.0135452 -0.0121653 -0.0195488 -0.0135452 -0.0216946 -0.0147142 -0.020882 -0.0161007 -0.0228178 -0.020882 -0.0272589 -0.0228178 -0.0297433 -0.0161007 -0.0228178 -0.0176996 -0.0250366 -0.0228178 -0.0297433 -0.0250366 -0.0325734 -0.0272589 -0.0336001 -0.0297433 -0.0366148 -0.0336001 -0.0397267 -0.0366148 -0.0432437 -0.0297433 -0.0366148 -0.0325734 -0.0400277 -0.0366148 -0.0432437 -0.0400277 -0.0472022 -0.0176996 -0.0250366 -0.0195488 -0.0275839 -0.0250366 -0.0325734 -0.0275839 -0.0357978 -0.0195488 -0.0275839 -0.0216946 -0.0305137 -0.0275839 -0.0357978 -0.0305137 -0.0394719 -0.0325734 -0.0400277 -0.0357978 -0.0438868 -0.0400277 -0.0472022 -0.0438868 -0.0516455 -0.0357978 -0.0438868 -0.0394719 -0.0482428 -0.0438868 -0.0516455 -0.0482428 -0.0566146 -0.0290042 -0.0332748 -0.0313188 -0.0359191 -0.0332748 -0.0372042 -0.0359191 -0.0401571 -0.0313188 -0.0359191 -0.0338241 -0.0387828 -0.0359191 -0.0401571 -0.0387828 -0.0433582 -0.0372042 -0.0407254 -0.0401571 -0.0439647 -0.0407254 -0.043783 -0.0439647 -0.0472862 -0.0401571 -0.0439647 -0.0433582 -0.0474822 -0.0439647 -0.0472862 -0.0474822 -0.0510991 -0.0338241 -0.0387828 -0.0366047 -0.0419575 -0.0387828 -0.0433582 -0.0419575 -0.0469052 -0.0366047 -0.0419575 -0.0397267 -0.0455128 -0.0419575 -0.0469052 -0.0455128 -0.0508699 -0.0433582 -0.0474822 -0.0469052 -0.0513806 -0.0474822 -0.0510991 -0.0513806 -0.0553297 -0.0469052 -0.0513806 -0.0508699 -0.0557336 -0.0513806 -0.0553297 -0.0557336 -0.0600531 -0.043783 -0.0463295 -0.0472862 -0.0500728 -0.0463295 -0.0483221 -0.0500728 -0.0522799 -0.0472862 -0.0500728 -0.0510991 -0.0541601 -0.0500728 -0.0522799 -0.0541601 -0.0566188 -0.0483221 -0.0497217 -0.0522799 -0.0538649 -0.0497217 -0.0504918 -0.0538649 -0.0547864 -0.0522799 -0.0538649 -0.0566188 -0.0584295 -0.0538649 -0.0547864 -0.0584295 -0.0595451 -0.0510991 -0.0541601 -0.0553297 -0.0587042 -0.0541601 -0.0566188 -0.0587042 -0.0614575 -0.0553297 -0.0587042 -0.0600531 -0.063783 -0.0587042 -0.0614575 -0.063783 -0.0668776 -0.0566188 -0.0584295 -0.0614575 -0.0635409 -0.0584295 -0.0595451 -0.0635409 -0.0649016 -0.0614575 -0.0635409 -0.0668776 -0.0692866 -0.0635409 -0.0649016 -0.0692866 -0.0709523 -0.0397267 -0.0455128 -0.0432437 -0.0495023 -0.0455128 -0.0508699 -0.0495023 -0.0553048 -0.0432437 -0.0495023 -0.0472022 -0.053969 -0.0495023 -0.0553048 -0.053969 -0.0602476 -0.0508699 -0.0557336 -0.0553048 -0.0605918 -0.0557336 -0.0600531 -0.0605918 -0.0653184 -0.0553048 -0.0605918 -0.0602476 -0.065987 -0.0605918 -0.0653184 -0.065987 -0.0711518 -0.0472022 -0.053969 -0.0516455 -0.0589485 -0.053969 -0.0602476 -0.0589485 -0.0657241 -0.0516455 -0.0589485 -0.0566146 -0.0644682 -0.0589485 -0.0657241 -0.0644682 -0.0717456 -0.0602476 -0.065987 -0.0657241 -0.071934 -0.065987 -0.0711518 -0.071934 -0.077557 -0.0657241 -0.071934 -0.0717456 -0.0784262 -0.071934 -0.077557 -0.0784262 -0.0845086 -0.0600531 -0.063783 -0.0653184 -0.0694447 -0.063783 -0.0668776 -0.0694447 -0.0729289 -0.0653184 -0.0694447 -0.0711518 -0.0757113 -0.0694447 -0.0729289 -0.0757113 -0.0796312 -0.0668776 -0.0692866 -0.0729289 -0.0757212 -0.0692866 -0.0709523 -0.0757212 -0.0777603 -0.0729289 -0.0757212 -0.0796312 -0.0828663 -0.0757212 -0.0777603 -0.0828663 -0.0853546 -0.0711518 -0.0757113 -0.077557 -0.0825764 -0.0757113 -0.0796312 -0.0825764 -0.0869706 -0.077557 -0.0825764 -0.0845086 -0.0899961 -0.0825764 -0.0869706 -0.0899961 -0.0948865 -0.0796312 -0.0828663 -0.0869706 -0.0907041 -0.0828663 -0.0853546 -0.0907041 -0.0937196 -0.0869706 -0.0907041 -0.0948865 -0.099161 -0.0907041 -0.0937196 -0.099161 -0.102774 -9.56145e-05 -9.67468e-05 -0.0114784 -0.0114851 -9.67468e-05 -9.60379e-05 -0.0114851 -0.0113182 -0.0114784 -0.0114851 -0.0205981 -0.0205933 -0.0114851 -0.0113182 -0.0205933 -0.0202837 -9.60379e-05 -9.33563e-05 -0.0113182 -0.0109746 -9.33563e-05 -8.85994e-05 -0.0109746 -0.0104546 -0.0113182 -0.0109746 -0.0202837 -0.0196653 -0.0109746 -0.0104546 -0.0196653 -0.0187399 -0.0205981 -0.0205933 -0.0278017 -0.02778 -0.0205933 -0.0202837 -0.02778 -0.0273546 -0.0278017 -0.02778 -0.0335643 -0.0335308 -0.02778 -0.0273546 -0.0335308 -0.0330178 -0.0202837 -0.0196653 -0.0273546 -0.0265215 -0.0196653 -0.0187399 -0.0265215 -0.025284 -0.0273546 -0.0265215 -0.0330178 -0.0320204 -0.0265215 -0.025284 -0.0320204 -0.0305433 -8.85994e-05 -8.17065e-05 -0.0104546 -0.0097625 -8.17065e-05 -7.26792e-05 -0.0097625 -0.00890819 -0.0104546 -0.0097625 -0.0187399 -0.0175168 -0.0097625 -0.00890819 -0.0175168 -0.0160145 -7.26792e-05 -6.16034e-05 -0.00890819 -0.00790825 -6.16034e-05 -4.86789e-05 -0.00790825 -0.00678773 -0.00890819 -0.00790825 -0.0160145 -0.014263 -0.00790825 -0.00678773 -0.014263 -0.0123066 -0.0187399 -0.0175168 -0.025284 -0.0236555 -0.0175168 -0.0160145 -0.0236555 -0.0216613 -0.025284 -0.0236555 -0.0305433 -0.0286021 -0.0236555 -0.0216613 -0.0286021 -0.0262269 -0.0160145 -0.014263 -0.0216613 -0.0193415 -0.014263 -0.0123066 -0.0193415 -0.0167544 -0.0216613 -0.0193415 -0.0262269 -0.023465 -0.0193415 -0.0167544 -0.023465 -0.0203842 -0.0335643 -0.0335308 -0.0383385 -0.0383064 -0.0335308 -0.0330178 -0.0383064 -0.0377335 -0.0383385 -0.0383064 -0.0425283 -0.0425166 -0.0383064 -0.0377335 -0.0425166 -0.0419115 -0.0330178 -0.0320204 -0.0377335 -0.0366137 -0.0320204 -0.0305433 -0.0366137 -0.034951 -0.0377335 -0.0366137 -0.0419115 -0.0407039 -0.0366137 -0.034951 -0.0407039 -0.0388955 -0.0425283 -0.0425166 -0.0464829 -0.046516 -0.0425166 -0.0419115 -0.046516 -0.0459068 -0.0464829 -0.046516 -0.0504918 -0.0505995 -0.046516 -0.0459068 -0.0505995 -0.0500166 -0.0419115 -0.0407039 -0.0459068 -0.0446415 -0.0407039 -0.0388955 -0.0446415 -0.0427173 -0.0459068 -0.0446415 -0.0500166 -0.0487224 -0.0446415 -0.0427173 -0.0487224 -0.0467069 -0.0305433 -0.0286021 -0.034951 -0.032762 -0.0286021 -0.0262269 -0.032762 -0.0300793 -0.034951 -0.032762 -0.0388955 -0.0365019 -0.032762 -0.0300793 -0.0365019 -0.0335561 -0.0262269 -0.023465 -0.0300793 -0.0269548 -0.023465 -0.0203842 -0.0269548 -0.0234635 -0.0300793 -0.0269548 -0.0335561 -0.0301128 -0.0269548 -0.0234635 -0.0301128 -0.0262527 -0.0388955 -0.0365019 -0.0427173 -0.0401464 -0.0365019 -0.0335561 -0.0401464 -0.0369603 -0.0427173 -0.0401464 -0.0467069 -0.0439762 -0.0401464 -0.0369603 -0.0439762 -0.0405577 -0.0335561 -0.0301128 -0.0369603 -0.0332148 -0.0301128 -0.0262527 -0.0332148 -0.0289957 -0.0369603 -0.0332148 -0.0405577 -0.036507 -0.0332148 -0.0289957 -0.036507 -0.0319143 -4.86789e-05 -3.42427e-05 -0.00678773 -0.00558211 -3.42427e-05 -1.89196e-05 -0.00558211 -0.00433876 -0.00678773 -0.00558211 -0.0123066 -0.0102067 -0.00558211 -0.00433876 -0.0102067 -0.00804349 -1.89196e-05 -3.31678e-06 -0.00433876 -0.0031209 -3.31678e-06 9.79318e-06 -0.0031209 -0.00199436 -0.00433876 -0.0031209 -0.00804349 -0.0059199 -0.0031209 -0.00199436 -0.0059199 -0.00394492 -0.0123066 -0.0102067 -0.0167544 -0.0139791 -0.0102067 -0.00804349 -0.0139791 -0.0111176 -0.0167544 -0.0139791 -0.0203842 -0.0170763 -0.0139791 -0.0111176 -0.0170763 -0.0136583 -0.00804349 -0.0059199 -0.0111176 -0.00829747 -0.0059199 -0.00394492 -0.00829747 -0.00565442 -0.0111176 -0.00829747 -0.0136583 -0.010275 -0.00829747 -0.00565442 -0.010275 -0.00708184 9.79318e-06 2.01208e-05 -0.00199436 -0.00109527 2.01208e-05 5.42024e-05 -0.00109527 -0.000213376 -0.00199436 -0.00109527 -0.00394492 -0.00230698 -0.00109527 -0.000213376 -0.00230698 -0.000804403 5.42024e-05 -1.13559e-05 -0.000213376 -0.000943737 -1.13559e-05 0.00760291 -0.000943737 0.00674157 -0.000213376 -0.000943737 -0.000804403 -0.00115914 -0.000943737 0.00674157 -0.00115914 0.00701074 -0.00394492 -0.00230698 -0.00565442 -0.00340403 -0.00230698 -0.000804403 -0.00340403 -0.00137437 -0.00565442 -0.00340403 -0.00708184 -0.00431644 -0.00340403 -0.00137437 -0.00431644 -0.00184264 -0.000804403 -0.00115914 -0.00137437 -0.0013377 -0.00115914 0.00701074 -0.0013377 0.00684467 -0.00137437 -0.0013377 -0.00184264 -0.00146154 -0.0013377 0.00684467 -0.00146154 0.00672537 -0.0203842 -0.0170763 -0.0234635 -0.0197068 -0.0170763 -0.0136583 -0.0197068 -0.0158142 -0.0234635 -0.0197068 -0.0262527 -0.0220861 -0.0197068 -0.0158142 -0.0220861 -0.017755 -0.0136583 -0.010275 -0.0158142 -0.0119457 -0.010275 -0.00708184 -0.0119457 -0.00827556 -0.0158142 -0.0119457 -0.017755 -0.0134361 -0.0119457 -0.00827556 -0.0134361 -0.00932484 -0.0262527 -0.0220861 -0.0289957 -0.0244227 -0.0220861 -0.017755 -0.0244227 -0.0196523 -0.0289957 -0.0244227 -0.0319143 -0.02691 -0.0244227 -0.0196523 -0.02691 -0.021668 -0.017755 -0.0134361 -0.0196523 -0.0148809 -0.0134361 -0.00932484 -0.0148809 -0.0103291 -0.0196523 -0.0148809 -0.021668 -0.0164091 -0.0148809 -0.0103291 -0.0164091 -0.0113839 -0.00708184 -0.00431644 -0.00827556 -0.00506512 -0.00431644 -0.00184264 -0.00506512 -0.00221308 -0.00827556 -0.00506512 -0.00932484 -0.00570928 -0.00506512 -0.00221308 -0.00570928 -0.00252109 -0.00184264 -0.00146154 -0.00221308 -0.00155683 -0.00146154 0.00672537 -0.00155683 0.00666672 -0.00221308 -0.00155683 -0.00252109 -0.00164024 -0.00155683 0.00666672 -0.00164024 0.00666642 -0.00932484 -0.00570928 -0.0103291 -0.00631579 -0.00570928 -0.00252109 -0.00631579 -0.00280334 -0.0103291 -0.00631579 -0.0113839 -0.00694761 -0.00631579 -0.00280334 -0.00694761 -0.00309284 -0.00252109 -0.00164024 -0.00280334 -0.00172335 -0.00164024 0.00666642 -0.00172335 0.00672759 -0.00280334 -0.00172335 -0.00309284 -0.00181628 -0.00172335 0.00672759 -0.00181628 0.00684921 -0.0504918 -0.0505995 -0.0547864 -0.0550047 -0.0505995 -0.0500166 -0.0550047 -0.0544832 -0.0547864 -0.0550047 -0.0595451 -0.0599179 -0.0550047 -0.0544832 -0.0599179 -0.0595005 -0.0500166 -0.0487224 -0.0544832 -0.0531912 -0.0487224 -0.0467069 -0.0531912 -0.0511087 -0.0544832 -0.0531912 -0.0595005 -0.0582493 -0.0531912 -0.0511087 -0.0582493 -0.0561299 -0.0595451 -0.0599179 -0.0649016 -0.0654827 -0.0599179 -0.0595005 -0.0654827 -0.0652237 -0.0649016 -0.0654827 -0.0709523 -0.0718076 -0.0654827 -0.0652237 -0.0718076 -0.0717772 -0.0595005 -0.0582493 -0.0652237 -0.0640646 -0.0582493 -0.0561299 -0.0640646 -0.0619514 -0.0652237 -0.0640646 -0.0717772 -0.0707803 -0.0640646 -0.0619514 -0.0707803 -0.0687375 -0.0467069 -0.0439762 -0.0511087 -0.048232 -0.0439762 -0.0405577 -0.048232 -0.0445815 -0.0511087 -0.048232 -0.0561299 -0.0531245 -0.048232 -0.0445815 -0.0531245 -0.0492418 -0.0405577 -0.036507 -0.0445815 -0.0402099 -0.036507 -0.0319143 -0.0402099 -0.0352113 -0.0445815 -0.0402099 -0.0492418 -0.0445282 -0.0402099 -0.0352113 -0.0445282 -0.0390793 -0.0561299 -0.0531245 -0.0619514 -0.0588461 -0.0531245 -0.0492418 -0.0588461 -0.0547392 -0.0619514 -0.0588461 -0.0687375 -0.0655826 -0.0588461 -0.0547392 -0.0655826 -0.0612784 -0.0492418 -0.0445282 -0.0547392 -0.0496647 -0.0445282 -0.0390793 -0.0496647 -0.0437161 -0.0547392 -0.0496647 -0.0612784 -0.0558372 -0.0496647 -0.0437161 -0.0558372 -0.0493428 -0.0709523 -0.0718076 -0.0777603 -0.0789699 -0.0718076 -0.0717772 -0.0789699 -0.0792579 -0.0777603 -0.0789699 -0.0853546 -0.0870123 -0.0789699 -0.0792579 -0.0870123 -0.0877311 -0.0717772 -0.0707803 -0.0792579 -0.0785191 -0.0707803 -0.0687375 -0.0785191 -0.0766419 -0.0792579 -0.0785191 -0.0877311 -0.0873782 -0.0785191 -0.0766419 -0.0873782 -0.0858025 -0.0853546 -0.0870123 -0.0937196 -0.0959304 -0.0870123 -0.0877311 -0.0959304 -0.0972141 -0.0937196 -0.0959304 -0.102774 -0.105645 -0.0959304 -0.0972141 -0.105645 -0.107642 -0.0877311 -0.0873782 -0.0972141 -0.0974099 -0.0873782 -0.0858025 -0.0974099 -0.0963209 -0.0972141 -0.0974099 -0.107642 -0.10858 -0.0974099 -0.0963209 -0.10858 -0.108215 -0.0687375 -0.0655826 -0.0766419 -0.0735213 -0.0655826 -0.0612784 -0.0735213 -0.0690796 -0.0766419 -0.0735213 -0.0858025 -0.0828482 -0.0735213 -0.0690796 -0.0828482 -0.0783797 -0.0612784 -0.0558372 -0.0690796 -0.0632929 -0.0558372 -0.0493428 -0.0632929 -0.0562224 -0.0690796 -0.0632929 -0.0783797 -0.072316 -0.0632929 -0.0562224 -0.072316 -0.0646738 -0.0858025 -0.0828482 -0.0963209 -0.0937277 -0.0828482 -0.0783797 -0.0937277 -0.0894152 -0.0963209 -0.0937277 -0.108215 -0.10625 -0.093727