# vtk DataFile Version 3.0
#This file was generated by the deal.II library on 2026/1/5 at 14:19:29
ASCII
DATASET UNSTRUCTURED_GRID

POINTS 4096 double
0 0 0
0.03125 0 0
0 0.03125 0
0.03125 0.03125 0
0.03125 0 0
0.0625 0 0
0.03125 0.03125 0
0.0625 0.03125 0
0 0.03125 0
0.03125 0.03125 0
0 0.0625 0
0.03125 0.0625 0
0.03125 0.03125 0
0.0625 0.03125 0
0.03125 0.0625 0
0.0625 0.0625 0
0.0625 0 0
0.09375 0 0
0.0625 0.03125 0
0.09375 0.03125 0
0.09375 0 0
0.125 0 0
0.09375 0.03125 0
0.125 0.03125 0
0.0625 0.03125 0
0.09375 0.03125 0
0.0625 0.0625 0
0.09375 0.0625 0
0.09375 0.03125 0
0.125 0.03125 0
0.09375 0.0625 0
0.125 0.0625 0
0 0.0625 0
0.03125 0.0625 0
0 0.09375 0
0.03125 0.09375 0
0.03125 0.0625 0
0.0625 0.0625 0
0.03125 0.09375 0
0.0625 0.09375 0
0 0.09375 0
0.03125 0.09375 0
0 0.125 0
0.03125 0.125 0
0.03125 0.09375 0
0.0625 0.09375 0
0.03125 0.125 0
0.0625 0.125 0
0.0625 0.0625 0
0.09375 0.0625 0
0.0625 0.09375 0
0.09375 0.09375 0
0.09375 0.0625 0
0.125 0.0625 0
0.09375 0.09375 0
0.125 0.09375 0
0.0625 0.09375 0
0.09375 0.09375 0
0.0625 0.125 0
0.09375 0.125 0
0.09375 0.09375 0
0.125 0.09375 0
0.09375 0.125 0
0.125 0.125 0
0.125 0 0
0.15625 0 0
0.125 0.03125 0
0.15625 0.03125 0
0.15625 0 0
0.1875 0 0
0.15625 0.03125 0
0.1875 0.03125 0
0.125 0.03125 0
0.15625 0.03125 0
0.125 0.0625 0
0.15625 0.0625 0
0.15625 0.03125 0
0.1875 0.03125 0
0.15625 0.0625 0
0.1875 0.0625 0
0.1875 0 0
0.21875 0 0
0.1875 0.03125 0
0.21875 0.03125 0
0.21875 0 0
0.25 0 0
0.21875 0.03125 0
0.25 0.03125 0
0.1875 0.03125 0
0.21875 0.03125 0
0.1875 0.0625 0
0.21875 0.0625 0
0.21875 0.03125 0
0.25 0.03125 0
0.21875 0.0625 0
0.25 0.0625 0
0.125 0.0625 0
0.15625 0.0625 0
0.125 0.09375 0
0.15625 0.09375 0
0.15625 0.0625 0
0.1875 0.0625 0
0.15625 0.09375 0
0.1875 0.09375 0
0.125 0.09375 0
0.15625 0.09375 0
0.125 0.125 0
0.15625 0.125 0
0.15625 0.09375 0
0.1875 0.09375 0
0.15625 0.125 0
0.1875 0.125 0
0.1875 0.0625 0
0.21875 0.0625 0
0.1875 0.09375 0
0.21875 0.09375 0
0.21875 0.0625 0
0.25 0.0625 0
0.21875 0.09375 0
0.25 0.09375 0
0.1875 0.09375 0
0.21875 0.09375 0
0.1875 0.125 0
0.21875 0.125 0
0.21875 0.09375 0
0.25 0.09375 0
0.21875 0.125 0
0.25 0.125 0
0 0.125 0
0.03125 0.125 0
0 0.15625 0
0.03125 0.15625 0
0.03125 0.125 0
0.0625 0.125 0
0.03125 0.15625 0
0.0625 0.15625 0
0 0.15625 0
0.03125 0.15625 0
0 0.1875 0
0.03125 0.1875 0
0.03125 0.15625 0
0.0625 0.15625 0
0.03125 0.1875 0
0.0625 0.1875 0
0.0625 0.125 0
0.09375 0.125 0
0.0625 0.15625 0
0.09375 0.15625 0
0.09375 0.125 0
0.125 0.125 0
0.09375 0.15625 0
0.125 0.15625 0
0.0625 0.15625 0
0.09375 0.15625 0
0.0625 0.1875 0
0.09375 0.1875 0
0.09375 0.15625 0
0.125 0.15625 0
0.09375 0.1875 0
0.125 0.1875 0
0 0.1875 0
0.03125 0.1875 0
0 0.21875 0
0.03125 0.21875 0
0.03125 0.1875 0
0.0625 0.1875 0
0.03125 0.21875 0
0.0625 0.21875 0
0 0.21875 0
0.03125 0.21875 0
0 0.25 0
0.03125 0.25 0
0.03125 0.21875 0
0.0625 0.21875 0
0.03125 0.25 0
0.0625 0.25 0
0.0625 0.1875 0
0.09375 0.1875 0
0.0625 0.21875 0
0.09375 0.21875 0
0.09375 0.1875 0
0.125 0.1875 0
0.09375 0.21875 0
0.125 0.21875 0
0.0625 0.21875 0
0.09375 0.21875 0
0.0625 0.25 0
0.09375 0.25 0
0.09375 0.21875 0
0.125 0.21875 0
0.09375 0.25 0
0.125 0.25 0
0.125 0.125 0
0.15625 0.125 0
0.125 0.15625 0
0.15625 0.15625 0
0.15625 0.125 0
0.1875 0.125 0
0.15625 0.15625 0
0.1875 0.15625 0
0.125 0.15625 0
0.15625 0.15625 0
0.125 0.1875 0
0.15625 0.1875 0
0.15625 0.15625 0
0.1875 0.15625 0
0.15625 0.1875 0
0.1875 0.1875 0
0.1875 0.125 0
0.21875 0.125 0
0.1875 0.15625 0
0.21875 0.15625 0
0.21875 0.125 0
0.25 0.125 0
0.21875 0.15625 0
0.25 0.15625 0
0.1875 0.15625 0
0.21875 0.15625 0
0.1875 0.1875 0
0.21875 0.1875 0
0.21875 0.15625 0
0.25 0.15625 0
0.21875 0.1875 0
0.25 0.1875 0
0.125 0.1875 0
0.15625 0.1875 0
0.125 0.21875 0
0.15625 0.21875 0
0.15625 0.1875 0
0.1875 0.1875 0
0.15625 0.21875 0
0.1875 0.21875 0
0.125 0.21875 0
0.15625 0.21875 0
0.125 0.25 0
0.15625 0.25 0
0.15625 0.21875 0
0.1875 0.21875 0
0.15625 0.25 0
0.1875 0.25 0
0.1875 0.1875 0
0.21875 0.1875 0
0.1875 0.21875 0
0.21875 0.21875 0
0.21875 0.1875 0
0.25 0.1875 0
0.21875 0.21875 0
0.25 0.21875 0
0.1875 0.21875 0
0.21875 0.21875 0
0.1875 0.25 0
0.21875 0.25 0
0.21875 0.21875 0
0.25 0.21875 0
0.21875 0.25 0
0.25 0.25 0
0.25 0 0
0.28125 0 0
0.25 0.03125 0
0.28125 0.03125 0
0.28125 0 0
0.3125 0 0
0.28125 0.03125 0
0.3125 0.03125 0
0.25 0.03125 0
0.28125 0.03125 0
0.25 0.0625 0
0.28125 0.0625 0
0.28125 0.03125 0
0.3125 0.03125 0
0.28125 0.0625 0
0.3125 0.0625 0
0.3125 0 0
0.34375 0 0
0.3125 0.03125 0
0.34375 0.03125 0
0.34375 0 0
0.375 0 0
0.34375 0.03125 0
0.375 0.03125 0
0.3125 0.03125 0
0.34375 0.03125 0
0.3125 0.0625 0
0.34375 0.0625 0
0.34375 0.03125 0
0.375 0.03125 0
0.34375 0.0625 0
0.375 0.0625 0
0.25 0.0625 0
0.28125 0.0625 0
0.25 0.09375 0
0.28125 0.09375 0
0.28125 0.0625 0
0.3125 0.0625 0
0.28125 0.09375 0
0.3125 0.09375 0
0.25 0.09375 0
0.28125 0.09375 0
0.25 0.125 0
0.28125 0.125 0
0.28125 0.09375 0
0.3125 0.09375 0
0.28125 0.125 0
0.3125 0.125 0
0.3125 0.0625 0
0.34375 0.0625 0
0.3125 0.09375 0
0.34375 0.09375 0
0.34375 0.0625 0
0.375 0.0625 0
0.34375 0.09375 0
0.375 0.09375 0
0.3125 0.09375 0
0.34375 0.09375 0
0.3125 0.125 0
0.34375 0.125 0
0.34375 0.09375 0
0.375 0.09375 0
0.34375 0.125 0
0.375 0.125 0
0.375 0 0
0.40625 0 0
0.375 0.03125 0
0.40625 0.03125 0
0.40625 0 0
0.4375 0 0
0.40625 0.03125 0
0.4375 0.03125 0
0.375 0.03125 0
0.40625 0.03125 0
0.375 0.0625 0
0.40625 0.0625 0
0.40625 0.03125 0
0.4375 0.03125 0
0.40625 0.0625 0
0.4375 0.0625 0
0.4375 0 0
0.46875 0 0
0.4375 0.03125 0
0.46875 0.03125 0
0.46875 0 0
0.5 0 0
0.46875 0.03125 0
0.5 0.03125 0
0.4375 0.03125 0
0.46875 0.03125 0
0.4375 0.0625 0
0.46875 0.0625 0
0.46875 0.03125 0
0.5 0.03125 0
0.46875 0.0625 0
0.5 0.0625 0
0.375 0.0625 0
0.40625 0.0625 0
0.375 0.09375 0
0.40625 0.09375 0
0.40625 0.0625 0
0.4375 0.0625 0
0.40625 0.09375 0
0.4375 0.09375 0
0.375 0.09375 0
0.40625 0.09375 0
0.375 0.125 0
0.40625 0.125 0
0.40625 0.09375 0
0.4375 0.09375 0
0.40625 0.125 0
0.4375 0.125 0
0.4375 0.0625 0
0.46875 0.0625 0
0.4375 0.09375 0
0.46875 0.09375 0
0.46875 0.0625 0
0.5 0.0625 0
0.46875 0.09375 0
0.5 0.09375 0
0.4375 0.09375 0
0.46875 0.09375 0
0.4375 0.125 0
0.46875 0.125 0
0.46875 0.09375 0
0.5 0.09375 0
0.46875 0.125 0
0.5 0.125 0
0.25 0.125 0
0.28125 0.125 0
0.25 0.15625 0
0.28125 0.15625 0
0.28125 0.125 0
0.3125 0.125 0
0.28125 0.15625 0
0.3125 0.15625 0
0.25 0.15625 0
0.28125 0.15625 0
0.25 0.1875 0
0.28125 0.1875 0
0.28125 0.15625 0
0.3125 0.15625 0
0.28125 0.1875 0
0.3125 0.1875 0
0.3125 0.125 0
0.34375 0.125 0
0.3125 0.15625 0
0.34375 0.15625 0
0.34375 0.125 0
0.375 0.125 0
0.34375 0.15625 0
0.375 0.15625 0
0.3125 0.15625 0
0.34375 0.15625 0
0.3125 0.1875 0
0.34375 0.1875 0
0.34375 0.15625 0
0.375 0.15625 0
0.34375 0.1875 0
0.375 0.1875 0
0.25 0.1875 0
0.28125 0.1875 0
0.25 0.21875 0
0.28125 0.21875 0
0.28125 0.1875 0
0.3125 0.1875 0
0.28125 0.21875 0
0.3125 0.21875 0
0.25 0.21875 0
0.28125 0.21875 0
0.25 0.25 0
0.28125 0.25 0
0.28125 0.21875 0
0.3125 0.21875 0
0.28125 0.25 0
0.3125 0.25 0
0.3125 0.1875 0
0.34375 0.1875 0
0.3125 0.21875 0
0.34375 0.21875 0
0.34375 0.1875 0
0.375 0.1875 0
0.34375 0.21875 0
0.375 0.21875 0
0.3125 0.21875 0
0.34375 0.21875 0
0.3125 0.25 0
0.34375 0.25 0
0.34375 0.21875 0
0.375 0.21875 0
0.34375 0.25 0
0.375 0.25 0
0.375 0.125 0
0.40625 0.125 0
0.375 0.15625 0
0.40625 0.15625 0
0.40625 0.125 0
0.4375 0.125 0
0.40625 0.15625 0
0.4375 0.15625 0
0.375 0.15625 0
0.40625 0.15625 0
0.375 0.1875 0
0.40625 0.1875 0
0.40625 0.15625 0
0.4375 0.15625 0
0.40625 0.1875 0
0.4375 0.1875 0
0.4375 0.125 0
0.46875 0.125 0
0.4375 0.15625 0
0.46875 0.15625 0
0.46875 0.125 0
0.5 0.125 0
0.46875 0.15625 0
0.5 0.15625 0
0.4375 0.15625 0
0.46875 0.15625 0
0.4375 0.1875 0
0.46875 0.1875 0
0.46875 0.15625 0
0.5 0.15625 0
0.46875 0.1875 0
0.5 0.1875 0
0.375 0.1875 0
0.40625 0.1875 0
0.375 0.21875 0
0.40625 0.21875 0
0.40625 0.1875 0
0.4375 0.1875 0
0.40625 0.21875 0
0.4375 0.21875 0
0.375 0.21875 0
0.40625 0.21875 0
0.375 0.25 0
0.40625 0.25 0
0.40625 0.21875 0
0.4375 0.21875 0
0.40625 0.25 0
0.4375 0.25 0
0.4375 0.1875 0
0.46875 0.1875 0
0.4375 0.21875 0
0.46875 0.21875 0
0.46875 0.1875 0
0.5 0.1875 0
0.46875 0.21875 0
0.5 0.21875 0
0.4375 0.21875 0
0.46875 0.21875 0
0.4375 0.25 0
0.46875 0.25 0
0.46875 0.21875 0
0.5 0.21875 0
0.46875 0.25 0
0.5 0.25 0
0 0.25 0
0.03125 0.25 0
0 0.28125 0
0.03125 0.28125 0
0.03125 0.25 0
0.0625 0.25 0
0.03125 0.28125 0
0.0625 0.28125 0
0 0.28125 0
0.03125 0.28125 0
0 0.3125 0
0.03125 0.3125 0
0.03125 0.28125 0
0.0625 0.28125 0
0.03125 0.3125 0
0.0625 0.3125 0
0.0625 0.25 0
0.09375 0.25 0
0.0625 0.28125 0
0.09375 0.28125 0
0.09375 0.25 0
0.125 0.25 0
0.09375 0.28125 0
0.125 0.28125 0
0.0625 0.28125 0
0.09375 0.28125 0
0.0625 0.3125 0
0.09375 0.3125 0
0.09375 0.28125 0
0.125 0.28125 0
0.09375 0.3125 0
0.125 0.3125 0
0 0.3125 0
0.03125 0.3125 0
0 0.34375 0
0.03125 0.34375 0
0.03125 0.3125 0
0.0625 0.3125 0
0.03125 0.34375 0
0.0625 0.34375 0
0 0.34375 0
0.03125 0.34375 0
0 0.375 0
0.03125 0.375 0
0.03125 0.34375 0
0.0625 0.34375 0
0.03125 0.375 0
0.0625 0.375 0
0.0625 0.3125 0
0.09375 0.3125 0
0.0625 0.34375 0
0.09375 0.34375 0
0.09375 0.3125 0
0.125 0.3125 0
0.09375 0.34375 0
0.125 0.34375 0
0.0625 0.34375 0
0.09375 0.34375 0
0.0625 0.375 0
0.09375 0.375 0
0.09375 0.34375 0
0.125 0.34375 0
0.09375 0.375 0
0.125 0.375 0
0.125 0.25 0
0.15625 0.25 0
0.125 0.28125 0
0.15625 0.28125 0
0.15625 0.25 0
0.1875 0.25 0
0.15625 0.28125 0
0.1875 0.28125 0
0.125 0.28125 0
0.15625 0.28125 0
0.125 0.3125 0
0.15625 0.3125 0
0.15625 0.28125 0
0.1875 0.28125 0
0.15625 0.3125 0
0.1875 0.3125 0
0.1875 0.25 0
0.21875 0.25 0
0.1875 0.28125 0
0.21875 0.28125 0
0.21875 0.25 0
0.25 0.25 0
0.21875 0.28125 0
0.25 0.28125 0
0.1875 0.28125 0
0.21875 0.28125 0
0.1875 0.3125 0
0.21875 0.3125 0
0.21875 0.28125 0
0.25 0.28125 0
0.21875 0.3125 0
0.25 0.3125 0
0.125 0.3125 0
0.15625 0.3125 0
0.125 0.34375 0
0.15625 0.34375 0
0.15625 0.3125 0
0.1875 0.3125 0
0.15625 0.34375 0
0.1875 0.34375 0
0.125 0.34375 0
[...]
POINT_DATA 4096
SCALARS u_x double 1
LOOKUP_TABLE default
1.16221e-05 1.40002e-05 -5.87738e-05 -0.000193013 1.40002e-05 8.59439e-06 -0.000193013 -0.000749702 -5.87738e-05 -0.000193013 -0.000147977 -0.000380793 -0.000193013 -0.000749702 -0.000380793 -0.00132541 8.59439e-06 -8.81119e-06 -0.000749702 -0.00152928 -8.81119e-06 -2.80323e-05 -0.00152928 -0.00240516 -0.000749702 -0.00152928 -0.00132541 -0.00256328 -0.00152928 -0.00240516 -0.00256328 -0.0039329 -0.000147977 -0.000380793 -0.000152871 -0.000487209 -0.000380793 -0.00132541 -0.000487209 -0.00164753 -0.000152871 -0.000487209 -4.79675e-05 -0.000551261 -0.000487209 -0.00164753 -0.000551261 -0.00180832 -0.00132541 -0.00256328 -0.00164753 -0.00314247 -0.00256328 -0.0039329 -0.00314247 -0.00477417 -0.00164753 -0.00314247 -0.00180832 -0.00345018 -0.00314247 -0.00477417 -0.00345018 -0.00522622 -2.80323e-05 -4.63612e-05 -0.00240516 -0.00329248 -4.63612e-05 -6.3398e-05 -0.00329248 -0.00415158 -0.00240516 -0.00329248 -0.0039329 -0.00531908 -0.00329248 -0.00415158 -0.00531908 -0.00666372 -6.3398e-05 -7.92605e-05 -0.00415158 -0.0049638 -7.92605e-05 -9.39828e-05 -0.0049638 -0.00571839 -0.00415158 -0.0049638 -0.00666372 -0.00793642 -0.0049638 -0.00571839 -0.00793642 -0.00911891 -0.0039329 -0.00531908 -0.00477417 -0.00641882 -0.00531908 -0.00666372 -0.00641882 -0.00801272 -0.00477417 -0.00641882 -0.00522622 -0.00701104 -0.00641882 -0.00801272 -0.00701104 -0.00873774 -0.00666372 -0.00793642 -0.00801272 -0.00952123 -0.00793642 -0.00911891 -0.00952123 -0.0109225 -0.00801272 -0.00952123 -0.00873774 -0.0103708 -0.00952123 -0.0109225 -0.0103708 -0.011887 -4.79675e-05 -0.000551261 0.000168948 -0.000609911 -0.000551261 -0.00180832 -0.000609911 -0.00190429 0.000168948 -0.000609911 0.000496976 -0.000682189 -0.000609911 -0.00190429 -0.000682189 -0.00199066 -0.00180832 -0.00345018 -0.00190429 -0.0036517 -0.00345018 -0.00522622 -0.0036517 -0.0055288 -0.00190429 -0.0036517 -0.00199066 -0.00384227 -0.0036517 -0.0055288 -0.00384227 -0.00581664 0.000496976 -0.000682189 0.000937934 -0.000775471 -0.000682189 -0.00199066 -0.000775471 -0.00209054 0.000937934 -0.000775471 0.00149651 -0.000892588 -0.000775471 -0.00209054 -0.000892588 -0.00221207 -0.00199066 -0.00384227 -0.00209054 -0.00406381 -0.00384227 -0.00581664 -0.00406381 -0.0061496 -0.00209054 -0.00406381 -0.00221207 -0.00433243 -0.00406381 -0.0061496 -0.00433243 -0.0065513 -0.00522622 -0.00701104 -0.0055288 -0.00741327 -0.00701104 -0.00873774 -0.00741327 -0.0092335 -0.0055288 -0.00741327 -0.00581664 -0.00779937 -0.00741327 -0.0092335 -0.00779937 -0.00971206 -0.00873774 -0.0103708 -0.0092335 -0.0109534 -0.0103708 -0.011887 -0.0109534 -0.0125492 -0.0092335 -0.0109534 -0.00971206 -0.0115177 -0.0109534 -0.0125492 -0.0115177 -0.0131917 -0.00581664 -0.00779937 -0.0061496 -0.00824598 -0.00779937 -0.00971206 -0.00824598 -0.0102659 -0.0061496 -0.00824598 -0.0065513 -0.00878351 -0.00824598 -0.0102659 -0.00878351 -0.0109314 -0.00971206 -0.0115177 -0.0102659 -0.0121709 -0.0115177 -0.0131917 -0.0121709 -0.0139353 -0.0102659 -0.0121709 -0.0109314 -0.0129549 -0.0121709 -0.0139353 -0.0129549 -0.0148265 -9.39828e-05 -0.000107493 -0.00571839 -0.00640701 -0.000107493 -0.000119667 -0.00640701 -0.00702232 -0.00571839 -0.00640701 -0.00911891 -0.0101974 -0.00640701 -0.00702232 -0.0101974 -0.0111601 -0.000119667 -0.000130374 -0.00702232 -0.00755769 -0.000130374 -0.000139484 -0.00755769 -0.0080073 -0.00702232 -0.00755769 -0.0111601 -0.0119966 -0.00755769 -0.0080073 -0.0119966 -0.012698 -0.00911891 -0.0101974 -0.0109225 -0.0122 -0.0101974 -0.0111601 -0.0122 -0.0133394 -0.0109225 -0.0122 -0.011887 -0.0132686 -0.0122 -0.0133394 -0.0132686 -0.0145004 -0.0111601 -0.0119966 -0.0133394 -0.0143288 -0.0119966 -0.012698 -0.0143288 -0.0151575 -0.0133394 -0.0143288 -0.0145004 -0.0155694 -0.0143288 -0.0151575 -0.0155694 -0.0164644 -0.000139484 -0.000146882 -0.0080073 -0.00836621 -0.000146882 -0.000152468 -0.00836621 -0.00863033 -0.0080073 -0.00836621 -0.012698 -0.0132567 -0.00836621 -0.00863033 -0.0132567 -0.0136665 -0.000152468 -0.000156158 -0.00863033 -0.00879655 -0.000156158 -0.000157889 -0.00879655 -0.00886265 -0.00863033 -0.00879655 -0.0136665 -0.0139228 -0.00879655 -0.00886265 -0.0139228 -0.0140223 -0.012698 -0.0132567 -0.0151575 -0.0158168 -0.0132567 -0.0136665 -0.0158168 -0.0162996 -0.0151575 -0.0158168 -0.0164644 -0.0171762 -0.0158168 -0.0162996 -0.0171762 -0.0176972 -0.0136665 -0.0139228 -0.0162996 -0.0166005 -0.0139228 -0.0140223 -0.0166005 -0.0167159 -0.0162996 -0.0166005 -0.0176972 -0.0180218 -0.0166005 -0.0167159 -0.0180218 -0.0181463 -0.011887 -0.0132686 -0.0125492 -0.0140026 -0.0132686 -0.0145004 -0.0140026 -0.0152978 -0.0125492 -0.0140026 -0.0131917 -0.0147151 -0.0140026 -0.0152978 -0.0147151 -0.0160722 -0.0145004 -0.0155694 -0.0152978 -0.0164215 -0.0155694 -0.0164644 -0.0164215 -0.0173621 -0.0152978 -0.0164215 -0.0160722 -0.017249 -0.0164215 -0.0173621 -0.017249 -0.0182342 -0.0131917 -0.0147151 -0.0139353 -0.0155396 -0.0147151 -0.0160722 -0.0155396 -0.0169676 -0.0139353 -0.0155396 -0.0148265 -0.0165265 -0.0155396 -0.0169676 -0.0165265 -0.018038 -0.0160722 -0.017249 -0.0169676 -0.0182054 -0.017249 -0.0182342 -0.0182054 -0.0192415 -0.0169676 -0.0182054 -0.018038 -0.0193473 -0.0182054 -0.0192415 -0.0193473 -0.020443 -0.0164644 -0.0171762 -0.0173621 -0.0181103 -0.0171762 -0.0176972 -0.0181103 -0.0186584 -0.0173621 -0.0181103 -0.0182342 -0.0190181 -0.0181103 -0.0186584 -0.0190181 -0.0195932 -0.0176972 -0.0180218 -0.0186584 -0.0190006 -0.0180218 -0.0181463 -0.0190006 -0.0191331 -0.0186584 -0.0190006 -0.0195932 -0.0199536 -0.0190006 -0.0191331 -0.0199536 -0.0200953 -0.0182342 -0.0190181 -0.0192415 -0.0200664 -0.0190181 -0.0195932 -0.0200664 -0.0206726 -0.0192415 -0.0200664 -0.020443 -0.0213159 -0.0200664 -0.0206726 -0.0213159 -0.0219586 -0.0195932 -0.0199536 -0.0206726 -0.0210543 -0.0199536 -0.0200953 -0.0210543 -0.0212073 -0.0206726 -0.0210543 -0.0219586 -0.0223654 -0.0210543 -0.0212073 -0.0223654 -0.0225322 0.00149651 -0.000892588 0.00217972 -0.00103539 -0.000892588 -0.00221207 -0.00103539 -0.00235875 0.00217972 -0.00103539 0.0029966 -0.00120598 -0.00103539 -0.00235875 -0.00120598 -0.00253351 -0.00221207 -0.00433243 -0.00235875 -0.00465574 -0.00433243 -0.0065513 -0.00465574 -0.00703319 -0.00235875 -0.00465574 -0.00253351 -0.00504007 -0.00465574 -0.00703319 -0.00504007 -0.00760467 0.0029966 -0.00120598 0.00395819 -0.00140701 -0.00120598 -0.00253351 -0.00140701 -0.00273995 0.00395819 -0.00140701 0.00507771 -0.00164184 -0.00140701 -0.00273995 -0.00164184 -0.0029828 -0.00253351 -0.00504007 -0.00273995 -0.0054929 -0.00504007 -0.00760467 -0.0054929 -0.00827659 -0.00273995 -0.0054929 -0.0029828 -0.00602383 -0.0054929 -0.00827659 -0.00602383 -0.00906265 -0.0065513 -0.00878351 -0.00703319 -0.00942678 -0.00878351 -0.0109314 -0.00942678 -0.0117262 -0.00703319 -0.00942678 -0.00760467 -0.0101879 -0.00942678 -0.0117262 -0.0101879 -0.0126645 -0.0109314 -0.0129549 -0.0117262 -0.0138893 -0.0129549 -0.0148265 -0.0138893 -0.0158869 -0.0117262 -0.0138893 -0.0126645 -0.0149898 -0.0138893 -0.0158869 -0.0149898 -0.0171329 -0.00760467 -0.0101879 -0.00827659 -0.0110806 -0.0101879 -0.0126645 -0.0110806 -0.0137621 -0.00827659 -0.0110806 -0.00906265 -0.0121221 -0.0110806 -0.0137621 -0.0121221 -0.0150387 -0.0126645 -0.0149898 -0.0137621 -0.0162737 -0.0149898 -0.0171329 -0.0162737 -0.0185823 -0.0137621 -0.0162737 -0.0150387 -0.0177619 -0.0162737 -0.0185823 -0.0177619 -0.0202566 0.00507771 -0.00164184 0.00637081 -0.00191465 -0.00164184 -0.0029828 -0.00191465 -0.00326835 0.00637081 -0.00191465 0.00785603 -0.00223072 -0.00191465 -0.00326835 -0.00223072 -0.00360493 -0.0029828 -0.00602383 -0.00326835 -0.00664531 -0.00602383 -0.00906265 -0.00664531 -0.00998046 -0.00326835 -0.00664531 -0.00360493 -0.00737361 -0.00664531 -0.00998046 -0.00737361 -0.0110528 0.00785603 -0.00223072 0.00955522 -0.00259669 -0.00223072 -0.00360493 -0.00259669 -0.00400377 0.00955522 -0.00259669 0.0114944 -0.00302114 -0.00259669 -0.00400377 -0.00302114 -0.00448021 -0.00360493 -0.00737361 -0.00400377 -0.00823033 -0.00737361 -0.0110528 -0.00823033 -0.0123098 -0.00400377 -0.00823033 -0.00448021 -0.00924446 -0.00823033 -0.0123098 -0.00924446 -0.0137911 -0.00906265 -0.0121221 -0.00998046 -0.0133342 -0.0121221 -0.0150387 -0.0133342 -0.0165187 -0.00998046 -0.0133342 -0.0110528 -0.0147447 -0.0133342 -0.0165187 -0.0147447 -0.0182333 -0.0150387 -0.0177619 -0.0165187 -0.0194803 -0.0177619 -0.0202566 -0.0194803 -0.0221814 -0.0165187 -0.0194803 -0.0182333 -0.0214609 -0.0194803 -0.0221814 -0.0214609 -0.0243883 -0.0110528 -0.0147447 -0.0123098 -0.0163898 -0.0147447 -0.0182333 -0.0163898 -0.0202218 -0.0123098 -0.0163898 -0.0137911 -0.0183169 -0.0163898 -0.0202218 -0.0183169 -0.022535 -0.0182333 -0.0214609 -0.0202218 -0.0237439 -0.0214609 -0.0243883 -0.0237439 -0.0269156 -0.0202218 -0.0237439 -0.022535 -0.0263795 -0.0237439 -0.0269156 -0.0263795 -0.0298105 -0.0148265 -0.0165265 -0.0158869 -0.0176984 -0.0165265 -0.018038 -0.0176984 -0.019307 -0.0158869 -0.0176984 -0.0171329 -0.0190724 -0.0176984 -0.019307 -0.0190724 -0.0207915 -0.018038 -0.0193473 -0.019307 -0.020699 -0.0193473 -0.020443 -0.020699 -0.0218634 -0.019307 -0.020699 -0.0207915 -0.022277 -0.020699 -0.0218634 -0.022277 -0.0235186 -0.0171329 -0.0190724 -0.0185823 -0.0206661 -0.0190724 -0.0207915 -0.0206661 -0.0225087 -0.0185823 -0.0206661 -0.0202566 -0.0225006 -0.0206661 -0.0225087 -0.0225006 -0.0244787 -0.0207915 -0.022277 -0.0225087 -0.0240979 -0.022277 -0.0235186 -0.0240979 -0.0254246 -0.0225087 -0.0240979 -0.0244787 -0.0261803 -0.0240979 -0.0254246 -0.0261803 -0.0275985 -0.020443 -0.0213159 -0.0218634 -0.0227913 -0.0213159 -0.0219586 -0.0227913 -0.023476 -0.0218634 -0.0227913 -0.0235186 -0.0245085 -0.0227913 -0.023476 -0.0245085 -0.0252404 -0.0219586 -0.0223654 -0.023476 -0.023912 -0.0223654 -0.0225322 -0.023912 -0.0240953 -0.023476 -0.023912 -0.0252404 -0.0257096 -0.023912 -0.0240953 -0.0257096 -0.0259122 -0.0235186 -0.0245085 -0.0254246 -0.0264824 -0.0245085 -0.0252404 -0.0264824 -0.0272663 -0.0254246 -0.0264824 -0.0275985 -0.0287289 -0.0264824 -0.0272663 -0.0287289 -0.0295686 -0.0252404 -0.0257096 -0.0272663 -0.0277724 -0.0257096 -0.0259122 -0.0277724 -0.0279975 -0.0272663 -0.0277724 -0.0295686 -0.030115 -0.0277724 -0.0279975 -0.030115 -0.0303656 -0.0202566 -0.0225006 -0.0221814 -0.0246006 -0.0225006 -0.0244787 -0.0246006 -0.0267244 -0.0221814 -0.0246006 -0.0243883 -0.0269955 -0.0246006 -0.0267244 -0.0269955 -0.0292724 -0.0244787 -0.0261803 -0.0267244 -0.028545 -0.0261803 -0.0275985 -0.028545 -0.0300589 -0.0267244 -0.028545 -0.0292724 -0.0312154 -0.028545 -0.0300589 -0.0312154 -0.0328259 -0.0243883 -0.0269955 -0.0269156 -0.0297204 -0.0269955 -0.0292724 -0.0297204 -0.0321532 -0.0269156 -0.0297204 -0.0298105 -0.0328167 -0.0297204 -0.0321532 -0.0328167 -0.0354017 -0.0292724 -0.0312154 -0.0321532 -0.0342172 -0.0312154 -0.0328259 -0.0342172 -0.0359205 -0.0321532 -0.0342172 -0.0354017 -0.0375782 -0.0342172 -0.0359205 -0.0375782 -0.039364 -0.0275985 -0.0287289 -0.0300589 -0.0312648 -0.0287289 -0.0295686 -0.0312648 -0.0321625 -0.0300589 -0.0312648 -0.0328259 -0.0341072 -0.0312648 -0.0321625 -0.0341072 -0.0350632 -0.0295686 -0.030115 -0.0321625 -0.0327518 -0.030115 -0.0303656 -0.0327518 -0.0330313 -0.0321625 -0.0327518 -0.0350632 -0.0356967 -0.0327518 -0.0330313 -0.0356967 -0.036008 -0.0328259 -0.0341072 -0.0359205 -0.037273 -0.0341072 -0.0350632 -0.037273 -0.0382844 -0.0359205 -0.037273 -0.039364 -0.040778 -0.037273 -0.0382844 -0.040778 -0.0418373 -0.0350632 -0.0356967 -0.0382844 -0.0389615 -0.0356967 -0.036008 -0.0389615 -0.0393074 -0.0382844 -0.0389615 -0.0418373 -0.0425549 -0.0389615 -0.0393074 -0.0425549 -0.0429374 -0.000157889 -0.000157614 -0.00886265 -0.00882745 -0.000157614 -0.000155308 -0.00882745 -0.00869071 -0.00886265 -0.00882745 -0.0140223 -0.0139633 -0.00882745 -0.00869071 -0.0139633 -0.0137458 -0.000155308 -0.00015097 -0.00869071 -0.00845328 -0.00015097 -0.000144624 -0.00845328 -0.00811705 -0.00869071 -0.00845328 -0.0137458 -0.013371 -0.00845328 -0.00811705 -0.013371 -0.0128421 -0.0140223 -0.0139633 -0.0167159 -0.0166439 -0.0139633 -0.0137458 -0.0166439 -0.0163844 -0.0167159 -0.0166439 -0.0181463 -0.0180686 -0.0166439 -0.0163844 -0.0180686 -0.0177886 -0.0137458 -0.013371 -0.0163844 -0.0159392 -0.013371 -0.0128421 -0.0159392 -0.0153118 -0.0163844 -0.0159392 -0.0177886 -0.017308 -0.0159392 -0.0153118 -0.017308 -0.0166307 -0.000144624 -0.000136318 -0.00811705 -0.00768502 -0.000136318 -0.000126125 -0.00768502 -0.00716132 -0.00811705 -0.00768502 -0.0128421 -0.0121639 -0.00768502 -0.00716132 -0.0121639 -0.0113428 -0.000126125 -0.000114147 -0.00716132 -0.00655121 -0.000114147 -0.000100512 -0.00655121 -0.00586102 -0.00716132 -0.00655121 -0.0113428 -0.0103871 -0.00655121 -0.00586102 -0.0103871 -0.00930677 -0.0128421 -0.0121639 -0.0153118 -0.0145079 -0.0121639 -0.0113428 -0.0145079 -0.0135351 -0.0153118 -0.0145079 -0.0166307 -0.0157624 -0.0145079 -0.0135351 -0.0157624 -0.0147113 -0.0113428 -0.0103871 -0.0135351 -0.012403 -0.0103871 -0.00930677 -0.012403 -0.0111235 -0.0135351 -0.012403 -0.0147113 -0.0134875 -0.012403 -0.0111235 -0.0134875 -0.0121037 -0.0181463 -0.0180686 -0.0191331 -0.0190536 -0.0180686 -0.0177886 -0.0190536 -0.018762 -0.0191331 -0.0190536 -0.0200953 -0.020016 -0.0190536 -0.018762 -0.020016 -0.0197152 -0.0177886 -0.017308 -0.018762 -0.0182598 -0.017308 -0.0166307 -0.0182598 -0.0175507 -0.018762 -0.0182598 -0.0197152 -0.0191944 -0.0182598 -0.0175507 -0.0191944 -0.0184567 -0.0200953 -0.020016 -0.0212073 -0.0211293 -0.020016 -0.0197152 -0.0211293 -0.0208194 -0.0212073 -0.0211293 -0.0225322 -0.0224564 -0.0211293 -0.0208194 -0.0224564 -0.0221368 -0.0197152 -0.0191944 -0.0208194 -0.0202785 -0.0191944 -0.0184567 -0.0202785 -0.0195094 -0.0208194 -0.0202785 -0.0221368 -0.0215736 -0.0202785 -0.0195094 -0.0215736 -0.020769 -0.0166307 -0.0157624 -0.0175507 -0.0166406 -0.0157624 -0.0147113 -0.0166406 -0.0155373 -0.0175507 -0.0166406 -0.0184567 -0.0175077 -0.0166406 -0.0155373 -0.0175077 -0.0163551 -0.0147113 -0.0134875 -0.0155373 -0.0142513 -0.0134875 -0.0121037 -0.0142513 -0.0127955 -0.0155373 -0.0142513 -0.0163551 -0.0150093 -0.0142513 -0.0127955 -0.0150093 -0.0134832 -0.0184567 -0.0175077 -0.0195094 -0.0185172 -0.0175077 -0.0163551 -0.0185172 -0.0173091 -0.0195094 -0.0185172 -0.020769 -0.0197272 -0.0185172 -0.0173091 -0.0197272 -0.0184546 -0.0163551 -0.0150093 -0.0173091 -0.0158951 -0.0150093 -0.0134832 -0.0158951 -0.0142881 -0.0173091 -0.0158951 -0.0184546 -0.0169608 -0.0158951 -0.0142881 -0.0169608 -0.0152582 -0.000100512 -8.53184e-05 -0.00586102 -0.00509835 -8.53184e-05 -6.88005e-05 -0.00509835 -0.00427123 -0.00586102 -0.00509835 -0.00930677 -0.00811377 -0.00509835 -0.00427123 -0.00811377 -0.0068216 -6.88005e-05 -5.03395e-05 -0.00427123 -0.0033958 -5.03395e-05 -3.30388e-05 -0.0033958 -0.00246956 -0.00427123 -0.0033958 -0.0068216 -0.00545419 -0.0033958 -0.00246956 -0.00545419 -0.00401761 -0.00930677 -0.00811377 -0.0111235 -0.00971086 -0.00811377 -0.0068216 -0.00971086 -0.00818127 -0.0111235 -0.00971086 -0.0121037 -0.0105751 -0.00971086 -0.00818127 -0.0105751 -0.00891923 -0.0068216 -0.00545419 -0.00818127 -0.00656229 -0.00545419 -0.00401761 -0.00656229 -0.00486485 -0.00818127 -0.00656229 -0.00891923 -0.00716523 -0.00656229 -0.00486485 -0.00716523 -0.00532557 -3.30388e-05 -1.32961e-05 -0.00246956 -0.00165173 -1.32961e-05 7.3669e-05 -0.00165173 -0.000351965 -0.00246956 -0.00165173 -0.00401761 -0.00271015 -0.00165173 -0.000351965 -0.00271015 -0.000891962 7.3669e-05 -4.5561e-05 -0.000351965 -0.00217386 -4.5561e-05 0.016676 -0.00217386 0.014837 -0.000351965 -0.00217386 -0.000891962 -0.00245902 -0.00217386 0.014837 -0.00245902 0.0156342 -0.00401761 -0.00271015 -0.00486485 -0.00329603 -0.00271015 -0.000891962 -0.00329603 -0.00121178 -0.00486485 -0.00329603 -0.00532557 -0.00361068 -0.00329603 -0.00121178 -0.00361068 -0.00137815 -0.000891962 -0.00245902 -0.00121178 -0.00261262 -0.00245902 0.0156342 -0.00261262 0.0155843 -0.00121178 -0.00261262 -0.00137815 -0.00268002 -0.00261262 0.0155843 -0.00268002 0.0156815 -0.0121037 -0.0105751 -0.0127955 -0.0111857 -0.0105751 -0.00891923 -0.0111857 -0.00944001 -0.0127955 -0.0111857 -0.0134832 -0.0117929 -0.0111857 -0.00944001 -0.0117929 -0.00995714 -0.00891923 -0.00716523 -0.00944001 -0.00758849 -0.00716523 -0.00532557 -0.00758849 -0.0056444 -0.00944001 -0.00758849 -0.00995714 -0.00800697 -0.00758849 -0.0056444 -0.00800697 -0.00595696 -0.0134832 -0.0117929 -0.0142881 -0.0125044 -0.0117929 -0.00995714 -0.0125044 -0.0105634 -0.0142881 -0.0125044 -0.0152582 -0.0133634 -0.0125044 -0.0105634 -0.0133634 -0.0112966 -0.00995714 -0.00800697 -0.0105634 -0.00849756 -0.00800697 -0.00595696 -0.00849756 -0.00632349 -0.0105634 -0.00849756 -0.0112966 -0.00909201 -0.00849756 -0.00632349 -0.00909201 -0.00676875 -0.00532557 -0.00361068 -0.0056444 -0.00382305 -0.00361068 -0.00137815 -0.00382305 -0.00147841 -0.0056444 -0.00382305 -0.00595696 -0.00402988 -0.00382305 -0.00147841 -0.00402988 -0.00157243 -0.00137815 -0.00268002 -0.00147841 -0.00273894 -0.00268002 0.0156815 -0.00273894 0.0159092 -0.00147841 -0.00273894 -0.00157243 -0.00281484 -0.00273894 0.0159092 -0.00281484 0.0162464 -0.00595696 -0.00402988 -0.00632349 -0.00427374 -0.00402988 -0.00157243 -0.00427374 -0.00168342 -0.00632349 -0.00427374 -0.00676875 -0.00457152 -0.00427374 -0.00168342 -0.00457152 -0.00181972 -0.00157243 -0.00281484 -0.00168342 -0.00291319 -0.00281484 0.0162464 -0.00291319 0.0166994 -0.00168342 -0.00291319 -0.00181972 -0.00303706 -0.00291319 0.0166994 -0.00303706 0.0172727 -0.0225322 -0.0224564 -0.0240953 -0.024023 -0.0224564 -0.0221368 -0.024023 -0.0236934 -0.0240953 -0.024023 -0.0259122 -0.0258452 -0.024023 -0.0236934 -0.0258452 -0.0255062 -0.0221368 -0.0215736 -0.0236934 -0.023106 -0.0215736 -0.020769 -0.023106 -0.0222619 -0.0236934 -0.023106 -0.0255062 -0.0248936 -0.023106 -0.0222619 -0.0248936 -0.0240071 -0.0259122 -0.0258452 -0.0279975 -0.0279381 -0.0258452 -0.0255062 -0.0279381 -0.0275912 -0.0279975 -0.0279381 -0.0303656 -0.0303171 -0.0279381 -0.0275912 -0.0303171 -0.0299653 -0.0255062 -0.0248936 -0.0275912 -0.0269538 -0.0248936 -0.0240071 -0.0269538 -0.0260237 -0.0275912 -0.0269538 -0.0299653 -0.0293055 -0.0269538 -0.0260237 -0.0293055 -0.0283329 -0.020769 -0.0197272 -0.0222619 -0.0211641 -0.0197272 -0.0184546 -0.0211641 -0.019818 -0.0222619 -0.0211641 -0.0240071 -0.0228481 -0.0211641 -0.019818 -0.0228481 -0.0214202 -0.0184546 -0.0169608 -0.019818 -0.0182321 -0.0169608 -0.0152582 -0.0182321 -0.0164183 -0.019818 -0.0182321 -0.0214202 -0.0197305 -0.0182321 -0.0164183 -0.0197305 -0.0177896 -0.0240071 -0.0228481 -0.0260237 -0.0247999 -0.0228481 -0.0214202 -0.0247999 -0.0232836 -0.0260237 -0.0247999 -0.0283329 -0.0270433 -0.0247999 -0.0232836 -0.0270433 -0.0254342 -0.0214202 -0.0197305 -0.0232836 -0.0214793 -0.0197305 -0.0177896 -0.0214793 -0.0193961 -0.0232836 -0.0214793 -0.0254342 -0.0235067 -0.0214793 -0.0193961 -0.0235067 -0.0212667 -0.0303656 -0.0303171 -0.0330313 -0.0329976 -0.0303171 -0.0299653 -0.0329976 -0.0326457 -0.0330313 -0.0329976 -0.036008 -0.0359944 -0.0329976 -0.0326457 -0.0359944 -0.0356495 -0.0299653 -0.0293055 -0.0326457 -0.0319686 -0.0293055 -0.0283329 -0.0319686 -0.0309579 -0.0326457 -0.0319686 -0.0356495 -0.0349634 -0.0319686 -0.0309579 -0.0349634 -0.0339234 -0.036008 -0.0359944 -0.0393074 -0.0393202 -0.0359944 -0.0356495 -0.0393202 -0.0389922 -0.0393074 -0.0393202 -0.0429374 -0.0429842 -0.0393202 -0.0389922 -0.0429842 -0.0426863 -0.0356495 -0.0349634 -0.0389922 -0.0383101 -0.0349634 -0.0339234 -0.0383101 -0.0372554 -0.0389922 -0.0383101 -0.0426863 -0.0420266 -0.0383101 -0.0372554 -0.0420266 -0.0409798 -0.0283329 -0.0270433 -0.0309579 -0.029605 -0.0270433 -0.0254342 -0.029605 -0.0279025 -0.0309579 -0.029605 -0.0339234 -0.0325149 -0.029605 -0.0279025 -0.0325149 -0.0307236 -0.0254342 -0.0235067 -0.0279025 -0.0258462 -0.0235067 -0.0212667 -0.0258462 -0.0234372 -0.0279025 -0.0258462 -0.0307236 -0.0285378 -0.0258462 -0.0234372 -0.0285378 -0.0259514 -0.0339234 -0.0325149