# vtk DataFile Version 3.0
#This file was generated by the deal.II library on 2026/1/5 at 14:19:37
ASCII
DATASET UNSTRUCTURED_GRID

POINTS 4096 double
0 0 0
0.03125 0 0
0 0.03125 0
0.03125 0.03125 0
0.03125 0 0
0.0625 0 0
0.03125 0.03125 0
0.0625 0.03125 0
0 0.03125 0
0.03125 0.03125 0
0 0.0625 0
0.03125 0.0625 0
0.03125 0.03125 0
0.0625 0.03125 0
0.03125 0.0625 0
0.0625 0.0625 0
0.0625 0 0
0.09375 0 0
0.0625 0.03125 0
0.09375 0.03125 0
0.09375 0 0
0.125 0 0
0.09375 0.03125 0
0.125 0.03125 0
0.0625 0.03125 0
0.09375 0.03125 0
0.0625 0.0625 0
0.09375 0.0625 0
0.09375 0.03125 0
0.125 0.03125 0
0.09375 0.0625 0
0.125 0.0625 0
0 0.0625 0
0.03125 0.0625 0
0 0.09375 0
0.03125 0.09375 0
0.03125 0.0625 0
0.0625 0.0625 0
0.03125 0.09375 0
0.0625 0.09375 0
0 0.09375 0
0.03125 0.09375 0
0 0.125 0
0.03125 0.125 0
0.03125 0.09375 0
0.0625 0.09375 0
0.03125 0.125 0
0.0625 0.125 0
0.0625 0.0625 0
0.09375 0.0625 0
0.0625 0.09375 0
0.09375 0.09375 0
0.09375 0.0625 0
0.125 0.0625 0
0.09375 0.09375 0
0.125 0.09375 0
0.0625 0.09375 0
0.09375 0.09375 0
0.0625 0.125 0
0.09375 0.125 0
0.09375 0.09375 0
0.125 0.09375 0
0.09375 0.125 0
0.125 0.125 0
0.125 0 0
0.15625 0 0
0.125 0.03125 0
0.15625 0.03125 0
0.15625 0 0
0.1875 0 0
0.15625 0.03125 0
0.1875 0.03125 0
0.125 0.03125 0
0.15625 0.03125 0
0.125 0.0625 0
0.15625 0.0625 0
0.15625 0.03125 0
0.1875 0.03125 0
0.15625 0.0625 0
0.1875 0.0625 0
0.1875 0 0
0.21875 0 0
0.1875 0.03125 0
0.21875 0.03125 0
0.21875 0 0
0.25 0 0
0.21875 0.03125 0
0.25 0.03125 0
0.1875 0.03125 0
0.21875 0.03125 0
0.1875 0.0625 0
0.21875 0.0625 0
0.21875 0.03125 0
0.25 0.03125 0
0.21875 0.0625 0
0.25 0.0625 0
0.125 0.0625 0
0.15625 0.0625 0
0.125 0.09375 0
0.15625 0.09375 0
0.15625 0.0625 0
0.1875 0.0625 0
0.15625 0.09375 0
0.1875 0.09375 0
0.125 0.09375 0
0.15625 0.09375 0
0.125 0.125 0
0.15625 0.125 0
0.15625 0.09375 0
0.1875 0.09375 0
0.15625 0.125 0
0.1875 0.125 0
0.1875 0.0625 0
0.21875 0.0625 0
0.1875 0.09375 0
0.21875 0.09375 0
0.21875 0.0625 0
0.25 0.0625 0
0.21875 0.09375 0
0.25 0.09375 0
0.1875 0.09375 0
0.21875 0.09375 0
0.1875 0.125 0
0.21875 0.125 0
0.21875 0.09375 0
0.25 0.09375 0
0.21875 0.125 0
0.25 0.125 0
0 0.125 0
0.03125 0.125 0
0 0.15625 0
0.03125 0.15625 0
0.03125 0.125 0
0.0625 0.125 0
0.03125 0.15625 0
0.0625 0.15625 0
0 0.15625 0
0.03125 0.15625 0
0 0.1875 0
0.03125 0.1875 0
0.03125 0.15625 0
0.0625 0.15625 0
0.03125 0.1875 0
0.0625 0.1875 0
0.0625 0.125 0
0.09375 0.125 0
0.0625 0.15625 0
0.09375 0.15625 0
0.09375 0.125 0
0.125 0.125 0
0.09375 0.15625 0
0.125 0.15625 0
0.0625 0.15625 0
0.09375 0.15625 0
0.0625 0.1875 0
0.09375 0.1875 0
0.09375 0.15625 0
0.125 0.15625 0
0.09375 0.1875 0
0.125 0.1875 0
0 0.1875 0
0.03125 0.1875 0
0 0.21875 0
0.03125 0.21875 0
0.03125 0.1875 0
0.0625 0.1875 0
0.03125 0.21875 0
0.0625 0.21875 0
0 0.21875 0
0.03125 0.21875 0
0 0.25 0
0.03125 0.25 0
0.03125 0.21875 0
0.0625 0.21875 0
0.03125 0.25 0
0.0625 0.25 0
0.0625 0.1875 0
0.09375 0.1875 0
0.0625 0.21875 0
0.09375 0.21875 0
0.09375 0.1875 0
0.125 0.1875 0
0.09375 0.21875 0
0.125 0.21875 0
0.0625 0.21875 0
0.09375 0.21875 0
0.0625 0.25 0
0.09375 0.25 0
0.09375 0.21875 0
0.125 0.21875 0
0.09375 0.25 0
0.125 0.25 0
0.125 0.125 0
0.15625 0.125 0
0.125 0.15625 0
0.15625 0.15625 0
0.15625 0.125 0
0.1875 0.125 0
0.15625 0.15625 0
0.1875 0.15625 0
0.125 0.15625 0
0.15625 0.15625 0
0.125 0.1875 0
0.15625 0.1875 0
0.15625 0.15625 0
0.1875 0.15625 0
0.15625 0.1875 0
0.1875 0.1875 0
0.1875 0.125 0
0.21875 0.125 0
0.1875 0.15625 0
0.21875 0.15625 0
0.21875 0.125 0
0.25 0.125 0
0.21875 0.15625 0
0.25 0.15625 0
0.1875 0.15625 0
0.21875 0.15625 0
0.1875 0.1875 0
0.21875 0.1875 0
0.21875 0.15625 0
0.25 0.15625 0
0.21875 0.1875 0
0.25 0.1875 0
0.125 0.1875 0
0.15625 0.1875 0
0.125 0.21875 0
0.15625 0.21875 0
0.15625 0.1875 0
0.1875 0.1875 0
0.15625 0.21875 0
0.1875 0.21875 0
0.125 0.21875 0
0.15625 0.21875 0
0.125 0.25 0
0.15625 0.25 0
0.15625 0.21875 0
0.1875 0.21875 0
0.15625 0.25 0
0.1875 0.25 0
0.1875 0.1875 0
0.21875 0.1875 0
0.1875 0.21875 0
0.21875 0.21875 0
0.21875 0.1875 0
0.25 0.1875 0
0.21875 0.21875 0
0.25 0.21875 0
0.1875 0.21875 0
0.21875 0.21875 0
0.1875 0.25 0
0.21875 0.25 0
0.21875 0.21875 0
0.25 0.21875 0
0.21875 0.25 0
0.25 0.25 0
0.25 0 0
0.28125 0 0
0.25 0.03125 0
0.28125 0.03125 0
0.28125 0 0
0.3125 0 0
0.28125 0.03125 0
0.3125 0.03125 0
0.25 0.03125 0
0.28125 0.03125 0
0.25 0.0625 0
0.28125 0.0625 0
0.28125 0.03125 0
0.3125 0.03125 0
0.28125 0.0625 0
0.3125 0.0625 0
0.3125 0 0
0.34375 0 0
0.3125 0.03125 0
0.34375 0.03125 0
0.34375 0 0
0.375 0 0
0.34375 0.03125 0
0.375 0.03125 0
0.3125 0.03125 0
0.34375 0.03125 0
0.3125 0.0625 0
0.34375 0.0625 0
0.34375 0.03125 0
0.375 0.03125 0
0.34375 0.0625 0
0.375 0.0625 0
0.25 0.0625 0
0.28125 0.0625 0
0.25 0.09375 0
0.28125 0.09375 0
0.28125 0.0625 0
0.3125 0.0625 0
0.28125 0.09375 0
0.3125 0.09375 0
0.25 0.09375 0
0.28125 0.09375 0
0.25 0.125 0
0.28125 0.125 0
0.28125 0.09375 0
0.3125 0.09375 0
0.28125 0.125 0
0.3125 0.125 0
0.3125 0.0625 0
0.34375 0.0625 0
0.3125 0.09375 0
0.34375 0.09375 0
0.34375 0.0625 0
0.375 0.0625 0
0.34375 0.09375 0
0.375 0.09375 0
0.3125 0.09375 0
0.34375 0.09375 0
0.3125 0.125 0
0.34375 0.125 0
0.34375 0.09375 0
0.375 0.09375 0
0.34375 0.125 0
0.375 0.125 0
0.375 0 0
0.40625 0 0
0.375 0.03125 0
0.40625 0.03125 0
0.40625 0 0
0.4375 0 0
0.40625 0.03125 0
0.4375 0.03125 0
0.375 0.03125 0
0.40625 0.03125 0
0.375 0.0625 0
0.40625 0.0625 0
0.40625 0.03125 0
0.4375 0.03125 0
0.40625 0.0625 0
0.4375 0.0625 0
0.4375 0 0
0.46875 0 0
0.4375 0.03125 0
0.46875 0.03125 0
0.46875 0 0
0.5 0 0
0.46875 0.03125 0
0.5 0.03125 0
0.4375 0.03125 0
0.46875 0.03125 0
0.4375 0.0625 0
0.46875 0.0625 0
0.46875 0.03125 0
0.5 0.03125 0
0.46875 0.0625 0
0.5 0.0625 0
0.375 0.0625 0
0.40625 0.0625 0
0.375 0.09375 0
0.40625 0.09375 0
0.40625 0.0625 0
0.4375 0.0625 0
0.40625 0.09375 0
0.4375 0.09375 0
0.375 0.09375 0
0.40625 0.09375 0
0.375 0.125 0
0.40625 0.125 0
0.40625 0.09375 0
0.4375 0.09375 0
0.40625 0.125 0
0.4375 0.125 0
0.4375 0.0625 0
0.46875 0.0625 0
0.4375 0.09375 0
0.46875 0.09375 0
0.46875 0.0625 0
0.5 0.0625 0
0.46875 0.09375 0
0.5 0.09375 0
0.4375 0.09375 0
0.46875 0.09375 0
0.4375 0.125 0
0.46875 0.125 0
0.46875 0.09375 0
0.5 0.09375 0
0.46875 0.125 0
0.5 0.125 0
0.25 0.125 0
0.28125 0.125 0
0.25 0.15625 0
0.28125 0.15625 0
0.28125 0.125 0
0.3125 0.125 0
0.28125 0.15625 0
0.3125 0.15625 0
0.25 0.15625 0
0.28125 0.15625 0
0.25 0.1875 0
0.28125 0.1875 0
0.28125 0.15625 0
0.3125 0.15625 0
0.28125 0.1875 0
0.3125 0.1875 0
0.3125 0.125 0
0.34375 0.125 0
0.3125 0.15625 0
0.34375 0.15625 0
0.34375 0.125 0
0.375 0.125 0
0.34375 0.15625 0
0.375 0.15625 0
0.3125 0.15625 0
0.34375 0.15625 0
0.3125 0.1875 0
0.34375 0.1875 0
0.34375 0.15625 0
0.375 0.15625 0
0.34375 0.1875 0
0.375 0.1875 0
0.25 0.1875 0
0.28125 0.1875 0
0.25 0.21875 0
0.28125 0.21875 0
0.28125 0.1875 0
0.3125 0.1875 0
0.28125 0.21875 0
0.3125 0.21875 0
0.25 0.21875 0
0.28125 0.21875 0
0.25 0.25 0
0.28125 0.25 0
0.28125 0.21875 0
0.3125 0.21875 0
0.28125 0.25 0
0.3125 0.25 0
0.3125 0.1875 0
0.34375 0.1875 0
0.3125 0.21875 0
0.34375 0.21875 0
0.34375 0.1875 0
0.375 0.1875 0
0.34375 0.21875 0
0.375 0.21875 0
0.3125 0.21875 0
0.34375 0.21875 0
0.3125 0.25 0
0.34375 0.25 0
0.34375 0.21875 0
0.375 0.21875 0
0.34375 0.25 0
0.375 0.25 0
0.375 0.125 0
0.40625 0.125 0
0.375 0.15625 0
0.40625 0.15625 0
0.40625 0.125 0
0.4375 0.125 0
0.40625 0.15625 0
0.4375 0.15625 0
0.375 0.15625 0
0.40625 0.15625 0
0.375 0.1875 0
0.40625 0.1875 0
0.40625 0.15625 0
0.4375 0.15625 0
0.40625 0.1875 0
0.4375 0.1875 0
0.4375 0.125 0
0.46875 0.125 0
0.4375 0.15625 0
0.46875 0.15625 0
0.46875 0.125 0
0.5 0.125 0
0.46875 0.15625 0
0.5 0.15625 0
0.4375 0.15625 0
0.46875 0.15625 0
0.4375 0.1875 0
0.46875 0.1875 0
0.46875 0.15625 0
0.5 0.15625 0
0.46875 0.1875 0
0.5 0.1875 0
0.375 0.1875 0
0.40625 0.1875 0
0.375 0.21875 0
0.40625 0.21875 0
0.40625 0.1875 0
0.4375 0.1875 0
0.40625 0.21875 0
0.4375 0.21875 0
0.375 0.21875 0
0.40625 0.21875 0
0.375 0.25 0
0.40625 0.25 0
0.40625 0.21875 0
0.4375 0.21875 0
0.40625 0.25 0
0.4375 0.25 0
0.4375 0.1875 0
0.46875 0.1875 0
0.4375 0.21875 0
0.46875 0.21875 0
0.46875 0.1875 0
0.5 0.1875 0
0.46875 0.21875 0
0.5 0.21875 0
0.4375 0.21875 0
0.46875 0.21875 0
0.4375 0.25 0
0.46875 0.25 0
0.46875 0.21875 0
0.5 0.21875 0
0.46875 0.25 0
0.5 0.25 0
0 0.25 0
0.03125 0.25 0
0 0.28125 0
0.03125 0.28125 0
0.03125 0.25 0
0.0625 0.25 0
0.03125 0.28125 0
0.0625 0.28125 0
0 0.28125 0
0.03125 0.28125 0
0 0.3125 0
0.03125 0.3125 0
0.03125 0.28125 0
0.0625 0.28125 0
0.03125 0.3125 0
0.0625 0.3125 0
0.0625 0.25 0
0.09375 0.25 0
0.0625 0.28125 0
0.09375 0.28125 0
0.09375 0.25 0
0.125 0.25 0
0.09375 0.28125 0
0.125 0.28125 0
0.0625 0.28125 0
0.09375 0.28125 0
0.0625 0.3125 0
0.09375 0.3125 0
0.09375 0.28125 0
0.125 0.28125 0
0.09375 0.3125 0
0.125 0.3125 0
0 0.3125 0
0.03125 0.3125 0
0 0.34375 0
0.03125 0.34375 0
0.03125 0.3125 0
0.0625 0.3125 0
0.03125 0.34375 0
0.0625 0.34375 0
0 0.34375 0
0.03125 0.34375 0
0 0.375 0
0.03125 0.375 0
0.03125 0.34375 0
0.0625 0.34375 0
0.03125 0.375 0
0.0625 0.375 0
0.0625 0.3125 0
0.09375 0.3125 0
0.0625 0.34375 0
0.09375 0.34375 0
0.09375 0.3125 0
0.125 0.3125 0
0.09375 0.34375 0
0.125 0.34375 0
0.0625 0.34375 0
0.09375 0.34375 0
0.0625 0.375 0
0.09375 0.375 0
0.09375 0.34375 0
0.125 0.34375 0
0.09375 0.375 0
0.125 0.375 0
0.125 0.25 0
0.15625 0.25 0
0.125 0.28125 0
0.15625 0.28125 0
0.15625 0.25 0
0.1875 0.25 0
0.15625 0.28125 0
0.1875 0.28125 0
0.125 0.28125 0
0.15625 0.28125 0
0.125 0.3125 0
0.15625 0.3125 0
0.15625 0.28125 0
0.1875 0.28125 0
0.15625 0.3125 0
0.1875 0.3125 0
0.1875 0.25 0
0.21875 0.25 0
0.1875 0.28125 0
0.21875 0.28125 0
0.21875 0.25 0
0.25 0.25 0
0.21875 0.28125 0
0.25 0.28125 0
0.1875 0.28125 0
0.21875 0.28125 0
0.1875 0.3125 0
0.21875 0.3125 0
0.21875 0.28125 0
0.25 0.28125 0
0.21875 0.3125 0
0.25 0.3125 0
0.125 0.3125 0
0.15625 0.3125 0
0.125 0.34375 0
0.15625 0.34375 0
0.15625 0.3125 0
0.1875 0.3125 0
0.15625 0.34375 0
0.1875 0.34375 0
0.125 0.34375 0
[...]
POINT_DATA 4096
SCALARS u_x double 1
LOOKUP_TABLE default
-2.87506e-06 1.48453e-05 -4.91695e-05 -5.19081e-05 1.48453e-05 2.30861e-05 -5.19081e-05 -0.000367772 -4.91695e-05 -5.19081e-05 -0.00017006 -0.000215799 -5.19081e-05 -0.000367772 -0.000215799 -0.000948841 2.30861e-05 2.05064e-05 -0.000367772 -0.000973477 2.05064e-05 1.1657e-05 -0.000973477 -0.00182549 -0.000367772 -0.000973477 -0.000948841 -0.00211974 -0.000973477 -0.00182549 -0.00211974 -0.00367229 -0.00017006 -0.000215799 -0.00030604 -0.000373915 -0.000215799 -0.000948841 -0.000373915 -0.00151401 -0.00030604 -0.000373915 -0.000408879 -0.000503967 -0.000373915 -0.00151401 -0.000503967 -0.00199292 -0.000948841 -0.00211974 -0.00151401 -0.00319824 -0.00211974 -0.00367229 -0.00319824 -0.00534724 -0.00151401 -0.00319824 -0.00199292 -0.00412384 -0.00319824 -0.00534724 -0.00412384 -0.00678272 1.1657e-05 8.57337e-08 -0.00182549 -0.00284328 8.57337e-08 -1.23126e-05 -0.00284328 -0.00395283 -0.00182549 -0.00284328 -0.00367229 -0.00548568 -0.00284328 -0.00395283 -0.00548568 -0.00744762 -1.23126e-05 -2.45951e-05 -0.00395283 -0.0050928 -2.45951e-05 -3.62989e-05 -0.0050928 -0.00621584 -0.00395283 -0.0050928 -0.00744762 -0.00945926 -0.0050928 -0.00621584 -0.00945926 -0.0114408 -0.00367229 -0.00548568 -0.00534724 -0.00780679 -0.00548568 -0.00744762 -0.00780679 -0.0104418 -0.00534724 -0.00780679 -0.00678272 -0.00978109 -0.00780679 -0.0104418 -0.00978109 -0.0129647 -0.00744762 -0.00945926 -0.0104418 -0.0131311 -0.00945926 -0.0114408 -0.0131311 -0.0157743 -0.0104418 -0.0131311 -0.0129647 -0.0161966 -0.0131311 -0.0157743 -0.0161966 -0.0193635 -0.000408879 -0.000503967 -0.000453357 -0.000610963 -0.000503967 -0.00199292 -0.000610963 -0.00238228 -0.000453357 -0.000610963 -0.000426641 -0.000705353 -0.000610963 -0.00238228 -0.000705353 -0.00270277 -0.00199292 -0.00412384 -0.00238228 -0.00489469 -0.00412384 -0.00678272 -0.00489469 -0.00799095 -0.00238228 -0.00489469 -0.00270277 -0.00554569 -0.00489469 -0.00799095 -0.00554569 -0.00902473 -0.000426641 -0.000705353 -0.000321518 -0.000797151 -0.000705353 -0.00270277 -0.000797151 -0.00298026 -0.000321518 -0.000797151 -0.00013316 -0.000894867 -0.000797151 -0.00298026 -0.000894867 -0.00323915 -0.00270277 -0.00554569 -0.00298026 -0.00612269 -0.00554569 -0.00902473 -0.00612269 -0.00995099 -0.00298026 -0.00612269 -0.00323915 -0.0066708 -0.00612269 -0.00995099 -0.0066708 -0.0108363 -0.00678272 -0.00978109 -0.00799095 -0.0114496 -0.00978109 -0.0129647 -0.0114496 -0.0150965 -0.00799095 -0.0114496 -0.00902473 -0.0128895 -0.0114496 -0.0150965 -0.0128895 -0.016945 -0.0129647 -0.0161966 -0.0150965 -0.0187815 -0.0161966 -0.0193635 -0.0187815 -0.0223812 -0.0150965 -0.0187815 -0.016945 -0.021028 -0.0187815 -0.0223812 -0.021028 -0.0250065 -0.00902473 -0.0128895 -0.00995099 -0.014191 -0.0128895 -0.016945 -0.014191 -0.0186264 -0.00995099 -0.014191 -0.0108363 -0.0154428 -0.014191 -0.0186264 -0.0154428 -0.0202516 -0.016945 -0.021028 -0.0186264 -0.0230804 -0.021028 -0.0250065 -0.0230804 -0.0274128 -0.0186264 -0.0230804 -0.0202516 -0.0250724 -0.0230804 -0.0274128 -0.0250724 -0.0297564 -3.62989e-05 -4.7216e-05 -0.00621584 -0.00728641 -4.7216e-05 -5.72535e-05 -0.00728641 -0.00827781 -0.00621584 -0.00728641 -0.0114408 -0.01333 -0.00728641 -0.00827781 -0.01333 -0.0150789 -5.72535e-05 -6.63572e-05 -0.00827781 -0.00916942 -6.63572e-05 -7.44615e-05 -0.00916942 -0.00994453 -0.00827781 -0.00916942 -0.0150789 -0.0166498 -0.00916942 -0.00994453 -0.0166498 -0.0180122 -0.0114408 -0.01333 -0.0157743 -0.0182913 -0.01333 -0.0150789 -0.0182913 -0.0206189 -0.0157743 -0.0182913 -0.0193635 -0.0223735 -0.0182913 -0.0206189 -0.0223735 -0.0251535 -0.0150789 -0.0166498 -0.0206189 -0.0227069 -0.0166498 -0.0180122 -0.0227069 -0.0245144 -0.0206189 -0.0227069 -0.0251535 -0.0276445 -0.0227069 -0.0245144 -0.0276445 -0.0297984 -7.44615e-05 -8.147e-05 -0.00994453 -0.0105889 -8.147e-05 -8.72603e-05 -0.0105889 -0.01109 -0.00994453 -0.0105889 -0.0180122 -0.0191406 -0.0105889 -0.01109 -0.0191406 -0.0200127 -8.72603e-05 -9.16854e-05 -0.01109 -0.0114364 -9.16854e-05 -9.45765e-05 -0.0114364 -0.0116182 -0.01109 -0.0114364 -0.0200127 -0.0206092 -0.0114364 -0.0116182 -0.0206092 -0.0209134 -0.0180122 -0.0191406 -0.0245144 -0.0260073 -0.0191406 -0.0200127 -0.0260073 -0.0271562 -0.0245144 -0.0260073 -0.0297984 -0.0315749 -0.0260073 -0.0271562 -0.0315749 -0.0329395 -0.0200127 -0.0206092 -0.0271562 -0.0279359 -0.0206092 -0.0209134 -0.0279359 -0.0283252 -0.0271562 -0.0279359 -0.0329395 -0.0338626 -0.0279359 -0.0283252 -0.0338626 -0.0343194 -0.0193635 -0.0223735 -0.0223812 -0.0257961 -0.0223735 -0.0251535 -0.0257961 -0.0289464 -0.0223812 -0.0257961 -0.0250065 -0.0287751 -0.0257961 -0.0289464 -0.0287751 -0.0322495 -0.0251535 -0.0276445 -0.0289464 -0.0317677 -0.0276445 -0.0297984 -0.0317677 -0.0342069 -0.0289464 -0.0317677 -0.0322495 -0.0353616 -0.0317677 -0.0342069 -0.0353616 -0.0380551 -0.0250065 -0.0287751 -0.0274128 -0.0315128 -0.0287751 -0.0322495 -0.0315128 -0.0352929 -0.0274128 -0.0315128 -0.0297564 -0.0341879 -0.0315128 -0.0352929 -0.0341879 -0.0382767 -0.0322495 -0.0353616 -0.0352929 -0.0386826 -0.0353616 -0.0380551 -0.0386826 -0.0416234 -0.0352929 -0.0386826 -0.0382767 -0.0419507 -0.0386826 -0.0416234 -0.0419507 -0.0451501 -0.0297984 -0.0315749 -0.0342069 -0.0362193 -0.0315749 -0.0329395 -0.0362193 -0.0377665 -0.0342069 -0.0362193 -0.0380551 -0.0402822 -0.0362193 -0.0377665 -0.0402822 -0.0420014 -0.0329395 -0.0338626 -0.0377665 -0.0388153 -0.0338626 -0.0343194 -0.0388153 -0.0393377 -0.0377665 -0.0388153 -0.0420014 -0.0431761 -0.0388153 -0.0393377 -0.0431761 -0.0437749 -0.0380551 -0.0402822 -0.0416234 -0.0440652 -0.0402822 -0.0420014 -0.0440652 -0.0459638 -0.0416234 -0.0440652 -0.0451501 -0.0478229 -0.0440652 -0.0459638 -0.0478229 -0.0499223 -0.0420014 -0.0431761 -0.0459638 -0.0472792 -0.0431761 -0.0437749 -0.0472792 -0.0479758 -0.0459638 -0.0472792 -0.0499223 -0.0514047 -0.0472792 -0.0479758 -0.0514047 -0.0522298 -0.00013316 -0.000894867 0.000142673 -0.00100544 -0.000894867 -0.00323915 -0.00100544 -0.00350019 0.000142673 -0.00100544 0.000510726 -0.00113449 -0.00100544 -0.00350019 -0.00113449 -0.00378017 -0.00323915 -0.0066708 -0.00350019 -0.00722954 -0.0066708 -0.0108363 -0.00722954 -0.0117398 -0.00350019 -0.00722954 -0.00378017 -0.00783174 -0.00722954 -0.0117398 -0.00783174 -0.0127114 0.000510726 -0.00113449 0.000976869 -0.00128677 -0.00113449 -0.00378017 -0.00128677 -0.00409268 0.000976869 -0.00128677 0.00154845 -0.0014666 -0.00128677 -0.00409268 -0.0014666 -0.00444919 -0.00378017 -0.00783174 -0.00409268 -0.00850437 -0.00783174 -0.0127114 -0.00850437 -0.013792 -0.00409268 -0.00850437 -0.00444919 -0.00927049 -0.00850437 -0.013792 -0.00927049 -0.0150168 -0.0108363 -0.0154428 -0.0117398 -0.0167235 -0.0154428 -0.0202516 -0.0167235 -0.0219183 -0.0117398 -0.0167235 -0.0127114 -0.0180994 -0.0167235 -0.0219183 -0.0180994 -0.0237082 -0.0202516 -0.0250724 -0.0219183 -0.0271199 -0.0250724 -0.0297564 -0.0271199 -0.0321707 -0.0219183 -0.0271199 -0.0237082 -0.0293188 -0.0271199 -0.0321707 -0.0293188 -0.0347645 -0.0127114 -0.0180994 -0.013792 -0.0196253 -0.0180994 -0.0237082 -0.0196253 -0.0256881 -0.013792 -0.0196253 -0.0150168 -0.0213472 -0.0196253 -0.0256881 -0.0213472 -0.0279135 -0.0237082 -0.0293188 -0.0256881 -0.0317463 -0.0293188 -0.0347645 -0.0317463 -0.0376239 -0.0256881 -0.0317463 -0.0279135 -0.0344651 -0.0317463 -0.0376239 -0.0344651 -0.0408166 0.00154845 -0.0014666 0.00223459 -0.00167835 -0.0014666 -0.00444919 -0.00167835 -0.00486046 0.00223459 -0.00167835 0.0030464 -0.00192692 -0.00167835 -0.00486046 -0.00192692 -0.00533795 -0.00444919 -0.00927049 -0.00486046 -0.0101516 -0.00927049 -0.0150168 -0.0101516 -0.0164177 -0.00486046 -0.0101516 -0.00533795 -0.0111701 -0.0101516 -0.0164177 -0.0111701 -0.0180275 0.0030464 -0.00192692 0.00399728 -0.00221833 -0.00192692 -0.00533795 -0.00221833 -0.00589542 0.00399728 -0.00221833 0.00510338 -0.00256034 -0.00221833 -0.00589542 -0.00256034 -0.00655057 -0.00533795 -0.0111701 -0.00589542 -0.0123523 -0.0111701 -0.0180275 -0.0123523 -0.0198829 -0.00589542 -0.0123523 -0.00655057 -0.0137311 -0.0123523 -0.0198829 -0.0137311 -0.0220287 -0.0150168 -0.0213472 -0.0164177 -0.0233063 -0.0213472 -0.0279135 -0.0233063 -0.0304324 -0.0164177 -0.0233063 -0.0180275 -0.0255433 -0.0233063 -0.0304324 -0.0255433 -0.0332903 -0.0279135 -0.0344651 -0.0304324 -0.0375274 -0.0344651 -0.0408166 -0.0375274 -0.0443968 -0.0304324 -0.0375274 -0.0332903 -0.0409801 -0.0375274 -0.0443968 -0.0409801 -0.0484097 -0.0180275 -0.0255433 -0.0198829 -0.0281025 -0.0255433 -0.0332903 -0.0281025 -0.0365342 -0.0198829 -0.0281025 -0.0220287 -0.0310349 -0.0281025 -0.0365342 -0.0310349 -0.0402152 -0.0332903 -0.0409801 -0.0365342 -0.0448685 -0.0409801 -0.0484097 -0.0448685 -0.0528949 -0.0365342 -0.0448685 -0.0402152 -0.049238 -0.0448685 -0.0528949 -0.049238 -0.0578866 -0.0297564 -0.0341879 -0.0321707 -0.0369504 -0.0341879 -0.0382767 -0.0369504 -0.0413665 -0.0321707 -0.0369504 -0.0347645 -0.0399207 -0.0369504 -0.0413665 -0.0399207 -0.0446934 -0.0382767 -0.0419507 -0.0413665 -0.0453461 -0.0419507 -0.0451501 -0.0453461 -0.0488285 -0.0413665 -0.0453461 -0.0446934 -0.0490094 -0.0453461 -0.0488285 -0.0490094 -0.0528086 -0.0347645 -0.0399207 -0.0376239 -0.0431923 -0.0399207 -0.0446934 -0.0431923 -0.0483571 -0.0376239 -0.0431923 -0.0408166 -0.0468366 -0.0431923 -0.0483571 -0.0468366 -0.0524315 -0.0446934 -0.0490094 -0.0483571 -0.0530464 -0.0490094 -0.0528086 -0.0530464 -0.0572013 -0.0483571 -0.0530464 -0.0524315 -0.0575324 -0.0530464 -0.0572013 -0.0575324 -0.0620842 -0.0451501 -0.0478229 -0.0488285 -0.0517607 -0.0478229 -0.0499223 -0.0517607 -0.0540934 -0.0488285 -0.0517607 -0.0528086 -0.0560372 -0.0517607 -0.0540934 -0.0560372 -0.0586444 -0.0499223 -0.0514047 -0.0540934 -0.0557793 -0.0514047 -0.0522298 -0.0557793 -0.0567722 -0.0540934 -0.0557793 -0.0586444 -0.0605788 -0.0557793 -0.0567722 -0.0605788 -0.061788 -0.0528086 -0.0560372 -0.0572013 -0.0607693 -0.0560372 -0.0586444 -0.0607693 -0.0636985 -0.0572013 -0.0607693 -0.0620842 -0.0660371 -0.0607693 -0.0636985 -0.0660371 -0.0693403 -0.0586444 -0.0605788 -0.0636985 -0.0659344 -0.0605788 -0.061788 -0.0659344 -0.0674178 -0.0636985 -0.0659344 -0.0693403 -0.0719375 -0.0659344 -0.0674178 -0.0719375 -0.0737633 -0.0408166 -0.0468366 -0.0443968 -0.0509075 -0.0468366 -0.0524315 -0.0509075 -0.056969 -0.0443968 -0.0509075 -0.0484097 -0.0554462 -0.0509075 -0.056969 -0.0554462 -0.0620051 -0.0524315 -0.0575324 -0.056969 -0.062518 -0.0575324 -0.0620842 -0.062518 -0.0675059 -0.056969 -0.062518 -0.0620051 -0.0680321 -0.062518 -0.0675059 -0.0680321 -0.073489 -0.0484097 -0.0554462 -0.0528949 -0.0604834 -0.0554462 -0.0620051 -0.0604834 -0.0675593 -0.0528949 -0.0604834 -0.0578866 -0.0660383 -0.0604834 -0.0675593 -0.0660383 -0.0736326 -0.0620051 -0.0680321 -0.0675593 -0.0740819 -0.0680321 -0.073489 -0.0740819 -0.0800278 -0.0675593 -0.0740819 -0.0736326 -0.0806477 -0.0740819 -0.0800278 -0.0806477 -0.0870812 -0.0620842 -0.0660371 -0.0675059 -0.0718888 -0.0660371 -0.0693403 -0.0718888 -0.0756198 -0.0675059 -0.0718888 -0.073489 -0.0783416 -0.0718888 -0.0756198 -0.0783416 -0.0825514 -0.0693403 -0.0719375 -0.0756198 -0.0786431 -0.0719375 -0.0737633 -0.0786431 -0.080889 -0.0756198 -0.0786431 -0.0825514 -0.086067 -0.0786431 -0.080889 -0.086067 -0.0888182 -0.073489 -0.0783416 -0.0800278 -0.0853782 -0.0783416 -0.0825514 -0.0853782 -0.0901082 -0.0800278 -0.0853782 -0.0870812 -0.0929357 -0.0853782 -0.0901082 -0.0929357 -0.098207 -0.0825514 -0.086067 -0.0901082 -0.0941771 -0.086067 -0.0888182 -0.0941771 -0.0975195 -0.0901082 -0.0941771 -0.098207 -0.102873 -0.0941771 -0.0975195 -0.102873 -0.106881 -9.45765e-05 -9.57584e-05 -0.0116182 -0.0116269 -9.57584e-05 -9.50628e-05 -0.0116269 -0.0114565 -0.0116182 -0.0116269 -0.0209134 -0.0209117 -0.0116269 -0.0114565 -0.0209117 -0.0205947 -9.50628e-05 -9.23401e-05 -0.0114565 -0.0111035 -9.23401e-05 -8.74802e-05 -0.0111035 -0.0105683 -0.0114565 -0.0111035 -0.0205947 -0.0199579 -0.0111035 -0.0105683 -0.0199579 -0.0190035 -0.0209134 -0.0209117 -0.0283252 -0.0283072 -0.0209117 -0.0205947 -0.0283072 -0.0278704 -0.0283252 -0.0283072 -0.0343194 -0.0342902 -0.0283072 -0.0278704 -0.0342902 -0.0337619 -0.0205947 -0.0199579 -0.0278704 -0.0270102 -0.0199579 -0.0190035 -0.0270102 -0.0257305 -0.0278704 -0.0270102 -0.0337619 -0.0327294 -0.0270102 -0.0257305 -0.0327294 -0.0311976 -8.74802e-05 -8.04305e-05 -0.0105683 -0.00985574 -8.04305e-05 -7.12067e-05 -0.00985574 -0.0089769 -0.0105683 -0.00985574 -0.0190035 -0.0177418 -0.00985574 -0.0089769 -0.0177418 -0.0161932 -7.12067e-05 -5.99139e-05 -0.0089769 -0.00795013 -5.99139e-05 -4.67836e-05 -0.00795013 -0.00680285 -0.0089769 -0.00795013 -0.0161932 -0.0143911 -0.00795013 -0.00680285 -0.0143911 -0.0123837 -0.0190035 -0.0177418 -0.0257305 -0.0240462 -0.0177418 -0.0161932 -0.0240462 -0.0219854 -0.0257305 -0.0240462 -0.0311976 -0.0291841 -0.0240462 -0.0219854 -0.0291841 -0.0267223 -0.0161932 -0.0143911 -0.0219854 -0.0195923 -0.0143911 -0.0123837 -0.0195923 -0.0169304 -0.0219854 -0.0195923 -0.0267223 -0.0238644 -0.0195923 -0.0169304 -0.0238644 -0.0206846 -0.0343194 -0.0342902 -0.0393377 -0.0393111 -0.0342902 -0.0337619 -0.0393111 -0.0387202 -0.0393377 -0.0393111 -0.0437749 -0.0437718 -0.0393111 -0.0387202 -0.0437718 -0.0431475 -0.0337619 -0.0327294 -0.0387202 -0.037558 -0.0327294 -0.0311976 -0.037558 -0.0358291 -0.0387202 -0.037558 -0.0431475 -0.041892 -0.037558 -0.0358291 -0.041892 -0.0400073 -0.0437749 -0.0437718 -0.0479758 -0.0480228 -0.0437718 -0.0431475 -0.0480228 -0.047396 -0.0479758 -0.0480228 -0.0522298 -0.0523605 -0.0480228 -0.047396 -0.0523605 -0.0517651 -0.0431475 -0.041892 -0.047396 -0.0460798 -0.041892 -0.0400073 -0.0460798 -0.0440712 -0.047396 -0.0460798 -0.0517651 -0.0504204 -0.0460798 -0.0440712 -0.0504204 -0.0483153 -0.0311976 -0.0291841 -0.0358291 -0.033552 -0.0291841 -0.0267223 -0.033552 -0.0307631 -0.0358291 -0.033552 -0.0400073 -0.0375107 -0.033552 -0.0307631 -0.0375107 -0.0344394 -0.0267223 -0.0238644 -0.0307631 -0.0275197 -0.0238644 -0.0206846 -0.0275197 -0.0239043 -0.0307631 -0.0275197 -0.0344394 -0.0308543 -0.0275197 -0.0239043 -0.0308543 -0.026844 -0.0400073 -0.0375107 -0.0440712 -0.041384 -0.0375107 -0.0344394 -0.041384 -0.0380537 -0.0440712 -0.041384 -0.0483153 -0.045457 -0.041384 -0.0380537 -0.045457 -0.0418769 -0.0344394 -0.0308543 -0.0380537 -0.0341431 -0.0308543 -0.026844 -0.0341431 -0.0297468 -0.0380537 -0.0341431 -0.0418769 -0.0376375 -0.0341431 -0.0297468 -0.0376375 -0.0328392 -4.67836e-05 -3.21999e-05 -0.00680285 -0.00557328 -3.21999e-05 -1.68412e-05 -0.00557328 -0.00431159 -0.00680285 -0.00557328 -0.0123837 -0.0102371 -0.00557328 -0.00431159 -0.0102371 -0.00803607 -1.68412e-05 -1.37205e-06 -0.00431159 -0.00308324 -1.37205e-06 1.14431e-05 -0.00308324 -0.00195557 -0.00431159 -0.00308324 -0.00803607 -0.00588728 -0.00308324 -0.00195557 -0.00588728 -0.00390214 -0.0123837 -0.0102371 -0.0169304 -0.0140849 -0.0102371 -0.00803607 -0.0140849 -0.0111639 -0.0169304 -0.0140849 -0.0206846 -0.0172818 -0.0140849 -0.0111639 -0.0172818 -0.0137803 -0.00803607 -0.00588728 -0.0111639 -0.00829982 -0.00588728 -0.00390214 -0.00829982 -0.00563175 -0.0111639 -0.00829982 -0.0137803 -0.0103311 -0.00829982 -0.00563175 -0.0103311 -0.00709399 1.14431e-05 2.12016e-05 -0.00195557 -0.0010626 2.12016e-05 5.34435e-05 -0.0010626 -0.000200368 -0.00195557 -0.0010626 -0.00390214 -0.00226666 -0.0010626 -0.000200368 -0.00226666 -0.000785472 5.34435e-05 -1.01743e-05 -0.000200368 -0.00090246 -1.01743e-05 0.00741909 -0.00090246 0.00659369 -0.000200368 -0.00090246 -0.000785472 -0.00111387 -0.00090246 0.00659369 -0.00111387 0.00684741 -0.00390214 -0.00226666 -0.00563175 -0.00337319 -0.00226666 -0.000785472 -0.00337319 -0.00135889 -0.00563175 -0.00337319 -0.00709399 -0.00430527 -0.00337319 -0.00135889 -0.00430527 -0.00183625 -0.000785472 -0.00111387 -0.00135889 -0.00129181 -0.00111387 0.00684741 -0.00129181 0.00667753 -0.00135889 -0.00129181 -0.00183625 -0.00141699 -0.00129181 0.00667753 -0.00141699 0.0065507 -0.0206846 -0.0172818 -0.0239043 -0.0200265 -0.0172818 -0.0137803 -0.0200265 -0.0160244 -0.0239043 -0.0200265 -0.026844 -0.0225287 -0.0200265 -0.0160244 -0.0225287 -0.0180604 -0.0137803 -0.0103311 -0.0160244 -0.0120656 -0.0103311 -0.00709399 -0.0120656 -0.00832999 -0.0160244 -0.0120656 -0.0180604 -0.0136248 -0.0120656 -0.00832999 -0.0136248 -0.00942451 -0.026844 -0.0225287 -0.0297468 -0.0249957 -0.0225287 -0.0180604 -0.0249957 -0.0200581 -0.0297468 -0.0249957 -0.0328392 -0.027625 -0.0249957 -0.0200581 -0.027625 -0.0221828 -0.0180604 -0.0136248 -0.0200581 -0.0151415 -0.0136248 -0.00942451 -0.0151415 -0.0104753 -0.0200581 -0.0151415 -0.0221828 -0.0167469 -0.0151415 -0.0104753 -0.0167469 -0.0115793 -0.00709399 -0.00430527 -0.00832999 -0.00507841 -0.00430527 -0.00183625 -0.00507841 -0.0022183 -0.00832999 -0.00507841 -0.00942451 -0.00574842 -0.00507841 -0.0022183 -0.00574842 -0.00253839 -0.00183625 -0.00141699 -0.0022183 -0.0015139 -0.00141699 0.0065507 -0.0015139 0.00648095 -0.0022183 -0.0015139 -0.00253839 -0.00159848 -0.0015139 0.00648095 -0.00159848 0.00646662 -0.00942451 -0.00574842 -0.0104753 -0.00638085 -0.00574842 -0.00253839 -0.00638085 -0.00283238 -0.0104753 -0.00638085 -0.0115793 -0.00703926 -0.00638085 -0.00283238 -0.00703926 -0.0031335 -0.00253839 -0.00159848 -0.00283238 -0.00168206 -0.00159848 0.00646662 -0.00168206 0.00651084 -0.00283238 -0.00168206 -0.0031335 -0.00177476 -0.00168206 0.00651084 -0.00177476 0.00661236 -0.0522298 -0.0523605 -0.0567722 -0.0570274 -0.0523605 -0.0517651 -0.0570274 -0.0565036 -0.0567722 -0.0570274 -0.061788 -0.0622179 -0.0570274 -0.0565036 -0.0622179 -0.061815 -0.0517651 -0.0504204 -0.0565036 -0.0551663 -0.0504204 -0.0483153 -0.0551663 -0.0529932 -0.0565036 -0.0551663 -0.061815 -0.0605302 -0.0551663 -0.0529932 -0.0605302 -0.058325 -0.061788 -0.0622179 -0.0674178 -0.0680842 -0.0622179 -0.061815 -0.0680842 -0.0678651 -0.0674178 -0.0680842 -0.0737633 -0.0747418 -0.0680842 -0.0678651 -0.0747418 -0.0747877 -0.061815 -0.0605302 -0.0678651 -0.0666928 -0.0605302 -0.058325 -0.0666928 -0.0645067 -0.0678651 -0.0666928 -0.0747877 -0.0738095 -0.0666928 -0.0645067 -0.0738095 -0.0717183 -0.0483153 -0.045457 -0.0529932 -0.0499807 -0.045457 -0.0418769 -0.0499807 -0.0461525 -0.0529932 -0.0499807 -0.058325 -0.05518 -0.0499807 -0.0461525 -0.05518 -0.0511062 -0.0418769 -0.0376375 -0.0461525 -0.0415686 -0.0376375 -0.0328392 -0.0415686 -0.036334 -0.0461525 -0.0415686 -0.0511062 -0.0461568 -0.0415686 -0.036334 -0.0461568 -0.0404394 -0.058325 -0.05518 -0.0645067 -0.0612649 -0.05518 -0.0511062 -0.0612649 -0.056958 -0.0645067 -0.0612649 -0.0717183 -0.0684402 -0.0612649 -0.056958 -0.0684402 -0.063935 -0.0511062 -0.0461568 -0.056958 -0.051626 -0.0461568 -0.0404394 -0.051626 -0.0453743 -0.056958 -0.051626 -0.063935 -0.0582185 -0.051626 -0.0453743 -0.0582185 -0.0513858 -0.0737633 -0.0747418 -0.080889 -0.082271 -0.0747418 -0.0747877 -0.082271 -0.0826849 -0.080889 -0.082271 -0.0888182 -0.0907099 -0.082271 -0.0826849 -0.0907099 -0.0916195 -0.0747877 -0.0738095 -0.0826849 -0.0820118 -0.0738095 -0.0717183 -0.0820118 -0.0801261 -0.0826849 -0.0820118 -0.0916195 -0.0913972 -0.0820118 -0.0801261 -0.0913972 -0.0898729 -0.0888182 -0.0907099 -0.0975195 -0.100037 -0.0907099 -0.0916195 -0.100037 -0.101592 -0.0975195 -0.100037 -0.106881 -0.110139 -0.100037 -0.101592 -0.110139 -0.112499 -0.0916195 -0.0913972 -0.101592 -0.102003 -0.0913972 -0.0898729 -0.102003 -0.101048 -0.101592 -0.102003 -0.112499 -0.113754 -0.102003 -0.101048 -0.113754 -0.113629 -0.0717183 -0.0684402 -0.0801261 -0.0769106 -0.0684402 -0.063935 -0.0769106 -0.0722796 -0.0801261 -0.0769106 -0.0898729 -0.0868726 -0.0769106 -0.0722796 -0.0868726 -0.0822455 -0.063935 -0.0582185 -0.0722796 -0.0662083 -0.0582185 -0.0513858 -0.0662083 -0.0587668 -0.0722796 -0.0662083 -0.0822455 -0.0759026 -0.0662083 -0.0587668 -0.0759026 -0.0678643 -0.0898729 -0.0868726 -0.101048 -0.0984838 -0.0868726 -0.0822455 -0.0984838 -0.0940691 -0.101048 -0.0984838 -0.113629 -0.111796 -0.0984838 -0.0940691 -0.111796 -0.1079 -0.08