# vtk DataFile Version 3.0
#This file was generated by the deal.II library on 2026/1/5 at 14:19:38
ASCII
DATASET UNSTRUCTURED_GRID

POINTS 4096 double
0 0 0
0.03125 0 0
0 0.03125 0
0.03125 0.03125 0
0.03125 0 0
0.0625 0 0
0.03125 0.03125 0
0.0625 0.03125 0
0 0.03125 0
0.03125 0.03125 0
0 0.0625 0
0.03125 0.0625 0
0.03125 0.03125 0
0.0625 0.03125 0
0.03125 0.0625 0
0.0625 0.0625 0
0.0625 0 0
0.09375 0 0
0.0625 0.03125 0
0.09375 0.03125 0
0.09375 0 0
0.125 0 0
0.09375 0.03125 0
0.125 0.03125 0
0.0625 0.03125 0
0.09375 0.03125 0
0.0625 0.0625 0
0.09375 0.0625 0
0.09375 0.03125 0
0.125 0.03125 0
0.09375 0.0625 0
0.125 0.0625 0
0 0.0625 0
0.03125 0.0625 0
0 0.09375 0
0.03125 0.09375 0
0.03125 0.0625 0
0.0625 0.0625 0
0.03125 0.09375 0
0.0625 0.09375 0
0 0.09375 0
0.03125 0.09375 0
0 0.125 0
0.03125 0.125 0
0.03125 0.09375 0
0.0625 0.09375 0
0.03125 0.125 0
0.0625 0.125 0
0.0625 0.0625 0
0.09375 0.0625 0
0.0625 0.09375 0
0.09375 0.09375 0
0.09375 0.0625 0
0.125 0.0625 0
0.09375 0.09375 0
0.125 0.09375 0
0.0625 0.09375 0
0.09375 0.09375 0
0.0625 0.125 0
0.09375 0.125 0
0.09375 0.09375 0
0.125 0.09375 0
0.09375 0.125 0
0.125 0.125 0
0.125 0 0
0.15625 0 0
0.125 0.03125 0
0.15625 0.03125 0
0.15625 0 0
0.1875 0 0
0.15625 0.03125 0
0.1875 0.03125 0
0.125 0.03125 0
0.15625 0.03125 0
0.125 0.0625 0
0.15625 0.0625 0
0.15625 0.03125 0
0.1875 0.03125 0
0.15625 0.0625 0
0.1875 0.0625 0
0.1875 0 0
0.21875 0 0
0.1875 0.03125 0
0.21875 0.03125 0
0.21875 0 0
0.25 0 0
0.21875 0.03125 0
0.25 0.03125 0
0.1875 0.03125 0
0.21875 0.03125 0
0.1875 0.0625 0
0.21875 0.0625 0
0.21875 0.03125 0
0.25 0.03125 0
0.21875 0.0625 0
0.25 0.0625 0
0.125 0.0625 0
0.15625 0.0625 0
0.125 0.09375 0
0.15625 0.09375 0
0.15625 0.0625 0
0.1875 0.0625 0
0.15625 0.09375 0
0.1875 0.09375 0
0.125 0.09375 0
0.15625 0.09375 0
0.125 0.125 0
0.15625 0.125 0
0.15625 0.09375 0
0.1875 0.09375 0
0.15625 0.125 0
0.1875 0.125 0
0.1875 0.0625 0
0.21875 0.0625 0
0.1875 0.09375 0
0.21875 0.09375 0
0.21875 0.0625 0
0.25 0.0625 0
0.21875 0.09375 0
0.25 0.09375 0
0.1875 0.09375 0
0.21875 0.09375 0
0.1875 0.125 0
0.21875 0.125 0
0.21875 0.09375 0
0.25 0.09375 0
0.21875 0.125 0
0.25 0.125 0
0 0.125 0
0.03125 0.125 0
0 0.15625 0
0.03125 0.15625 0
0.03125 0.125 0
0.0625 0.125 0
0.03125 0.15625 0
0.0625 0.15625 0
0 0.15625 0
0.03125 0.15625 0
0 0.1875 0
0.03125 0.1875 0
0.03125 0.15625 0
0.0625 0.15625 0
0.03125 0.1875 0
0.0625 0.1875 0
0.0625 0.125 0
0.09375 0.125 0
0.0625 0.15625 0
0.09375 0.15625 0
0.09375 0.125 0
0.125 0.125 0
0.09375 0.15625 0
0.125 0.15625 0
0.0625 0.15625 0
0.09375 0.15625 0
0.0625 0.1875 0
0.09375 0.1875 0
0.09375 0.15625 0
0.125 0.15625 0
0.09375 0.1875 0
0.125 0.1875 0
0 0.1875 0
0.03125 0.1875 0
0 0.21875 0
0.03125 0.21875 0
0.03125 0.1875 0
0.0625 0.1875 0
0.03125 0.21875 0
0.0625 0.21875 0
0 0.21875 0
0.03125 0.21875 0
0 0.25 0
0.03125 0.25 0
0.03125 0.21875 0
0.0625 0.21875 0
0.03125 0.25 0
0.0625 0.25 0
0.0625 0.1875 0
0.09375 0.1875 0
0.0625 0.21875 0
0.09375 0.21875 0
0.09375 0.1875 0
0.125 0.1875 0
0.09375 0.21875 0
0.125 0.21875 0
0.0625 0.21875 0
0.09375 0.21875 0
0.0625 0.25 0
0.09375 0.25 0
0.09375 0.21875 0
0.125 0.21875 0
0.09375 0.25 0
0.125 0.25 0
0.125 0.125 0
0.15625 0.125 0
0.125 0.15625 0
0.15625 0.15625 0
0.15625 0.125 0
0.1875 0.125 0
0.15625 0.15625 0
0.1875 0.15625 0
0.125 0.15625 0
0.15625 0.15625 0
0.125 0.1875 0
0.15625 0.1875 0
0.15625 0.15625 0
0.1875 0.15625 0
0.15625 0.1875 0
0.1875 0.1875 0
0.1875 0.125 0
0.21875 0.125 0
0.1875 0.15625 0
0.21875 0.15625 0
0.21875 0.125 0
0.25 0.125 0
0.21875 0.15625 0
0.25 0.15625 0
0.1875 0.15625 0
0.21875 0.15625 0
0.1875 0.1875 0
0.21875 0.1875 0
0.21875 0.15625 0
0.25 0.15625 0
0.21875 0.1875 0
0.25 0.1875 0
0.125 0.1875 0
0.15625 0.1875 0
0.125 0.21875 0
0.15625 0.21875 0
0.15625 0.1875 0
0.1875 0.1875 0
0.15625 0.21875 0
0.1875 0.21875 0
0.125 0.21875 0
0.15625 0.21875 0
0.125 0.25 0
0.15625 0.25 0
0.15625 0.21875 0
0.1875 0.21875 0
0.15625 0.25 0
0.1875 0.25 0
0.1875 0.1875 0
0.21875 0.1875 0
0.1875 0.21875 0
0.21875 0.21875 0
0.21875 0.1875 0
0.25 0.1875 0
0.21875 0.21875 0
0.25 0.21875 0
0.1875 0.21875 0
0.21875 0.21875 0
0.1875 0.25 0
0.21875 0.25 0
0.21875 0.21875 0
0.25 0.21875 0
0.21875 0.25 0
0.25 0.25 0
0.25 0 0
0.28125 0 0
0.25 0.03125 0
0.28125 0.03125 0
0.28125 0 0
0.3125 0 0
0.28125 0.03125 0
0.3125 0.03125 0
0.25 0.03125 0
0.28125 0.03125 0
0.25 0.0625 0
0.28125 0.0625 0
0.28125 0.03125 0
0.3125 0.03125 0
0.28125 0.0625 0
0.3125 0.0625 0
0.3125 0 0
0.34375 0 0
0.3125 0.03125 0
0.34375 0.03125 0
0.34375 0 0
0.375 0 0
0.34375 0.03125 0
0.375 0.03125 0
0.3125 0.03125 0
0.34375 0.03125 0
0.3125 0.0625 0
0.34375 0.0625 0
0.34375 0.03125 0
0.375 0.03125 0
0.34375 0.0625 0
0.375 0.0625 0
0.25 0.0625 0
0.28125 0.0625 0
0.25 0.09375 0
0.28125 0.09375 0
0.28125 0.0625 0
0.3125 0.0625 0
0.28125 0.09375 0
0.3125 0.09375 0
0.25 0.09375 0
0.28125 0.09375 0
0.25 0.125 0
0.28125 0.125 0
0.28125 0.09375 0
0.3125 0.09375 0
0.28125 0.125 0
0.3125 0.125 0
0.3125 0.0625 0
0.34375 0.0625 0
0.3125 0.09375 0
0.34375 0.09375 0
0.34375 0.0625 0
0.375 0.0625 0
0.34375 0.09375 0
0.375 0.09375 0
0.3125 0.09375 0
0.34375 0.09375 0
0.3125 0.125 0
0.34375 0.125 0
0.34375 0.09375 0
0.375 0.09375 0
0.34375 0.125 0
0.375 0.125 0
0.375 0 0
0.40625 0 0
0.375 0.03125 0
0.40625 0.03125 0
0.40625 0 0
0.4375 0 0
0.40625 0.03125 0
0.4375 0.03125 0
0.375 0.03125 0
0.40625 0.03125 0
0.375 0.0625 0
0.40625 0.0625 0
0.40625 0.03125 0
0.4375 0.03125 0
0.40625 0.0625 0
0.4375 0.0625 0
0.4375 0 0
0.46875 0 0
0.4375 0.03125 0
0.46875 0.03125 0
0.46875 0 0
0.5 0 0
0.46875 0.03125 0
0.5 0.03125 0
0.4375 0.03125 0
0.46875 0.03125 0
0.4375 0.0625 0
0.46875 0.0625 0
0.46875 0.03125 0
0.5 0.03125 0
0.46875 0.0625 0
0.5 0.0625 0
0.375 0.0625 0
0.40625 0.0625 0
0.375 0.09375 0
0.40625 0.09375 0
0.40625 0.0625 0
0.4375 0.0625 0
0.40625 0.09375 0
0.4375 0.09375 0
0.375 0.09375 0
0.40625 0.09375 0
0.375 0.125 0
0.40625 0.125 0
0.40625 0.09375 0
0.4375 0.09375 0
0.40625 0.125 0
0.4375 0.125 0
0.4375 0.0625 0
0.46875 0.0625 0
0.4375 0.09375 0
0.46875 0.09375 0
0.46875 0.0625 0
0.5 0.0625 0
0.46875 0.09375 0
0.5 0.09375 0
0.4375 0.09375 0
0.46875 0.09375 0
0.4375 0.125 0
0.46875 0.125 0
0.46875 0.09375 0
0.5 0.09375 0
0.46875 0.125 0
0.5 0.125 0
0.25 0.125 0
0.28125 0.125 0
0.25 0.15625 0
0.28125 0.15625 0
0.28125 0.125 0
0.3125 0.125 0
0.28125 0.15625 0
0.3125 0.15625 0
0.25 0.15625 0
0.28125 0.15625 0
0.25 0.1875 0
0.28125 0.1875 0
0.28125 0.15625 0
0.3125 0.15625 0
0.28125 0.1875 0
0.3125 0.1875 0
0.3125 0.125 0
0.34375 0.125 0
0.3125 0.15625 0
0.34375 0.15625 0
0.34375 0.125 0
0.375 0.125 0
0.34375 0.15625 0
0.375 0.15625 0
0.3125 0.15625 0
0.34375 0.15625 0
0.3125 0.1875 0
0.34375 0.1875 0
0.34375 0.15625 0
0.375 0.15625 0
0.34375 0.1875 0
0.375 0.1875 0
0.25 0.1875 0
0.28125 0.1875 0
0.25 0.21875 0
0.28125 0.21875 0
0.28125 0.1875 0
0.3125 0.1875 0
0.28125 0.21875 0
0.3125 0.21875 0
0.25 0.21875 0
0.28125 0.21875 0
0.25 0.25 0
0.28125 0.25 0
0.28125 0.21875 0
0.3125 0.21875 0
0.28125 0.25 0
0.3125 0.25 0
0.3125 0.1875 0
0.34375 0.1875 0
0.3125 0.21875 0
0.34375 0.21875 0
0.34375 0.1875 0
0.375 0.1875 0
0.34375 0.21875 0
0.375 0.21875 0
0.3125 0.21875 0
0.34375 0.21875 0
0.3125 0.25 0
0.34375 0.25 0
0.34375 0.21875 0
0.375 0.21875 0
0.34375 0.25 0
0.375 0.25 0
0.375 0.125 0
0.40625 0.125 0
0.375 0.15625 0
0.40625 0.15625 0
0.40625 0.125 0
0.4375 0.125 0
0.40625 0.15625 0
0.4375 0.15625 0
0.375 0.15625 0
0.40625 0.15625 0
0.375 0.1875 0
0.40625 0.1875 0
0.40625 0.15625 0
0.4375 0.15625 0
0.40625 0.1875 0
0.4375 0.1875 0
0.4375 0.125 0
0.46875 0.125 0
0.4375 0.15625 0
0.46875 0.15625 0
0.46875 0.125 0
0.5 0.125 0
0.46875 0.15625 0
0.5 0.15625 0
0.4375 0.15625 0
0.46875 0.15625 0
0.4375 0.1875 0
0.46875 0.1875 0
0.46875 0.15625 0
0.5 0.15625 0
0.46875 0.1875 0
0.5 0.1875 0
0.375 0.1875 0
0.40625 0.1875 0
0.375 0.21875 0
0.40625 0.21875 0
0.40625 0.1875 0
0.4375 0.1875 0
0.40625 0.21875 0
0.4375 0.21875 0
0.375 0.21875 0
0.40625 0.21875 0
0.375 0.25 0
0.40625 0.25 0
0.40625 0.21875 0
0.4375 0.21875 0
0.40625 0.25 0
0.4375 0.25 0
0.4375 0.1875 0
0.46875 0.1875 0
0.4375 0.21875 0
0.46875 0.21875 0
0.46875 0.1875 0
0.5 0.1875 0
0.46875 0.21875 0
0.5 0.21875 0
0.4375 0.21875 0
0.46875 0.21875 0
0.4375 0.25 0
0.46875 0.25 0
0.46875 0.21875 0
0.5 0.21875 0
0.46875 0.25 0
0.5 0.25 0
0 0.25 0
0.03125 0.25 0
0 0.28125 0
0.03125 0.28125 0
0.03125 0.25 0
0.0625 0.25 0
0.03125 0.28125 0
0.0625 0.28125 0
0 0.28125 0
0.03125 0.28125 0
0 0.3125 0
0.03125 0.3125 0
0.03125 0.28125 0
0.0625 0.28125 0
0.03125 0.3125 0
0.0625 0.3125 0
0.0625 0.25 0
0.09375 0.25 0
0.0625 0.28125 0
0.09375 0.28125 0
0.09375 0.25 0
0.125 0.25 0
0.09375 0.28125 0
0.125 0.28125 0
0.0625 0.28125 0
0.09375 0.28125 0
0.0625 0.3125 0
0.09375 0.3125 0
0.09375 0.28125 0
0.125 0.28125 0
0.09375 0.3125 0
0.125 0.3125 0
0 0.3125 0
0.03125 0.3125 0
0 0.34375 0
0.03125 0.34375 0
0.03125 0.3125 0
0.0625 0.3125 0
0.03125 0.34375 0
0.0625 0.34375 0
0 0.34375 0
0.03125 0.34375 0
0 0.375 0
0.03125 0.375 0
0.03125 0.34375 0
0.0625 0.34375 0
0.03125 0.375 0
0.0625 0.375 0
0.0625 0.3125 0
0.09375 0.3125 0
0.0625 0.34375 0
0.09375 0.34375 0
0.09375 0.3125 0
0.125 0.3125 0
0.09375 0.34375 0
0.125 0.34375 0
0.0625 0.34375 0
0.09375 0.34375 0
0.0625 0.375 0
0.09375 0.375 0
0.09375 0.34375 0
0.125 0.34375 0
0.09375 0.375 0
0.125 0.375 0
0.125 0.25 0
0.15625 0.25 0
0.125 0.28125 0
0.15625 0.28125 0
0.15625 0.25 0
0.1875 0.25 0
0.15625 0.28125 0
0.1875 0.28125 0
0.125 0.28125 0
0.15625 0.28125 0
0.125 0.3125 0
0.15625 0.3125 0
0.15625 0.28125 0
0.1875 0.28125 0
0.15625 0.3125 0
0.1875 0.3125 0
0.1875 0.25 0
0.21875 0.25 0
0.1875 0.28125 0
0.21875 0.28125 0
0.21875 0.25 0
0.25 0.25 0
0.21875 0.28125 0
0.25 0.28125 0
0.1875 0.28125 0
0.21875 0.28125 0
0.1875 0.3125 0
0.21875 0.3125 0
0.21875 0.28125 0
0.25 0.28125 0
0.21875 0.3125 0
0.25 0.3125 0
0.125 0.3125 0
0.15625 0.3125 0
0.125 0.34375 0
0.15625 0.34375 0
0.15625 0.3125 0
0.1875 0.3125 0
0.15625 0.34375 0
0.1875 0.34375 0
0.125 0.34375 0
[...]
POINT_DATA 4096
SCALARS u_x double 1
LOOKUP_TABLE default
-1.90702e-06 1.46651e-05 -4.65126e-05 -4.4454e-05 1.46651e-05 2.34392e-05 -4.4454e-05 -0.000346828 -4.65126e-05 -4.4454e-05 -0.000168008 -0.000205479 -4.4454e-05 -0.000346828 -0.000205479 -0.000922276 2.34392e-05 2.16143e-05 -0.000346828 -0.000938676 2.16143e-05 1.33675e-05 -0.000938676 -0.00178285 -0.000346828 -0.000938676 -0.000922276 -0.00207997 -0.000938676 -0.00178285 -0.00207997 -0.0036308 -0.000168008 -0.000205479 -0.00030881 -0.000364915 -0.000205479 -0.000922276 -0.000364915 -0.00149568 -0.00030881 -0.000364915 -0.000420511 -0.000498844 -0.000364915 -0.00149568 -0.000498844 -0.00199242 -0.000922276 -0.00207997 -0.00149568 -0.00317792 -0.00207997 -0.0036308 -0.00317792 -0.00534204 -0.00149568 -0.00317792 -0.00199242 -0.00414006 -0.00317792 -0.00534204 -0.00414006 -0.00683845 1.33675e-05 2.19847e-06 -0.00178285 -0.00280212 2.19847e-06 -9.97219e-06 -0.00280212 -0.00392329 -0.00178285 -0.00280212 -0.0036308 -0.00545837 -0.00280212 -0.00392329 -0.00545837 -0.00745145 -9.97219e-06 -2.21583e-05 -0.00392329 -0.00508413 -2.21583e-05 -3.38567e-05 -0.00508413 -0.00623548 -0.00392329 -0.00508413 -0.00745145 -0.00950968 -0.00508413 -0.00623548 -0.00950968 -0.0115501 -0.0036308 -0.00545837 -0.00534204 -0.00783784 -0.00545837 -0.00745145 -0.00783784 -0.0105308 -0.00534204 -0.00783784 -0.00683845 -0.00990182 -0.00783784 -0.0105308 -0.00990182 -0.0131756 -0.00745145 -0.00950968 -0.0105308 -0.0132975 -0.00950968 -0.0115501 -0.0132975 -0.0160332 -0.0105308 -0.0132975 -0.0131756 -0.0165195 -0.0132975 -0.0160332 -0.0165195 -0.0198149 -0.000420511 -0.000498844 -0.000476961 -0.000610866 -0.000498844 -0.00199242 -0.000610866 -0.00240482 -0.000476961 -0.000610866 -0.000464225 -0.000710434 -0.000610866 -0.00240482 -0.000710434 -0.00274994 -0.00199242 -0.00414006 -0.00240482 -0.00495696 -0.00414006 -0.00683845 -0.00495696 -0.00812151 -0.00240482 -0.00495696 -0.00274994 -0.00565705 -0.00495696 -0.00812151 -0.00565705 -0.00923461 -0.000464225 -0.000710434 -0.000374027 -0.000806907 -0.000710434 -0.00274994 -0.000806907 -0.00305104 -0.000374027 -0.000806907 -0.000200668 -0.000908437 -0.000806907 -0.00305104 -0.000908437 -0.0033309 -0.00274994 -0.00565705 -0.00305104 -0.00628129 -0.00565705 -0.00923461 -0.00628129 -0.0102375 -0.00305104 -0.00628129 -0.0033309 -0.00687174 -0.00628129 -0.0102375 -0.00687174 -0.0111921 -0.00683845 -0.00990182 -0.00812151 -0.0116777 -0.00990182 -0.0131756 -0.0116777 -0.01545 -0.00812151 -0.0116777 -0.00923461 -0.0132306 -0.0116777 -0.01545 -0.0132306 -0.0174475 -0.0131756 -0.0165195 -0.01545 -0.0192837 -0.0165195 -0.0198149 -0.0192837 -0.0230491 -0.01545 -0.0192837 -0.0174475 -0.0217163 -0.0192837 -0.0230491 -0.0217163 -0.0258976 -0.00923461 -0.0132306 -0.0102375 -0.0146416 -0.0132306 -0.0174475 -0.0146416 -0.0192731 -0.0102375 -0.0146416 -0.0111921 -0.0159929 -0.0146416 -0.0192731 -0.0159929 -0.0210305 -0.0174475 -0.0217163 -0.0192731 -0.0239488 -0.0217163 -0.0258976 -0.0239488 -0.0285201 -0.0192731 -0.0239488 -0.0210305 -0.0261068 -0.0239488 -0.0285201 -0.0261068 -0.0310642 -3.38567e-05 -4.48288e-05 -0.00623548 -0.00733946 -4.48288e-05 -5.49658e-05 -0.00733946 -0.008367 -0.00623548 -0.00733946 -0.0115501 -0.0135065 -0.00733946 -0.008367 -0.0135065 -0.0153266 -5.49658e-05 -6.4202e-05 -0.008367 -0.00929523 -6.4202e-05 -7.24594e-05 -0.00929523 -0.0101055 -0.008367 -0.00929523 -0.0153266 -0.0169687 -0.00929523 -0.0101055 -0.0169687 -0.0183986 -0.0115501 -0.0135065 -0.0160332 -0.0186524 -0.0135065 -0.0153266 -0.0186524 -0.0210863 -0.0160332 -0.0186524 -0.0198149 -0.0229634 -0.0186524 -0.0210863 -0.0229634 -0.025885 -0.0153266 -0.0169687 -0.0210863 -0.0232793 -0.0169687 -0.0183986 -0.0232793 -0.0251852 -0.0210863 -0.0232793 -0.025885 -0.0285143 -0.0232793 -0.0251852 -0.0285143 -0.0307969 -7.24594e-05 -7.96305e-05 -0.0101055 -0.0107816 -7.96305e-05 -8.55828e-05 -0.0107816 -0.0113093 -0.0101055 -0.0107816 -0.0183986 -0.0195874 -0.0107816 -0.0113093 -0.0195874 -0.0205098 -8.55828e-05 -9.01558e-05 -0.0113093 -0.0116757 -9.01558e-05 -9.316e-05 -0.0116757 -0.0118694 -0.0113093 -0.0116757 -0.0205098 -0.0211434 -0.0116757 -0.0118694 -0.0211434 -0.0214691 -0.0183986 -0.0195874 -0.0251852 -0.0267654 -0.0195874 -0.0205098 -0.0267654 -0.0279863 -0.0251852 -0.0267654 -0.0307969 -0.0326869 -0.0267654 -0.0279863 -0.0326869 -0.0341444 -0.0205098 -0.0211434 -0.0279863 -0.0288186 -0.0211434 -0.0214691 -0.0288186 -0.0292378 -0.0279863 -0.0288186 -0.0341444 -0.0351353 -0.0288186 -0.0292378 -0.0351353 -0.0356303 -0.0198149 -0.0229634 -0.0230491 -0.0266393 -0.0229634 -0.025885 -0.0266393 -0.0299666 -0.0230491 -0.0266393 -0.0258976 -0.0298779 -0.0266393 -0.0299666 -0.0298779 -0.0335643 -0.025885 -0.0285143 -0.0299666 -0.0329593 -0.0285143 -0.0307969 -0.0329593 -0.0355572 -0.0299666 -0.0329593 -0.0335643 -0.0368808 -0.0329593 -0.0355572 -0.0368808 -0.0397634 -0.0258976 -0.0298779 -0.0285201 -0.0328674 -0.0298779 -0.0335643 -0.0328674 -0.0368943 -0.0285201 -0.0328674 -0.0310642 -0.0357777 -0.0328674 -0.0368943 -0.0357777 -0.0401478 -0.0335643 -0.0368808 -0.0368943 -0.0405216 -0.0368808 -0.0397634 -0.0405216 -0.043683 -0.0368943 -0.0405216 -0.0401478 -0.0440936 -0.0405216 -0.043683 -0.0440936 -0.0475468 -0.0307969 -0.0326869 -0.0355572 -0.0377091 -0.0326869 -0.0341444 -0.0377091 -0.0393707 -0.0355572 -0.0377091 -0.0397634 -0.0421571 -0.0377091 -0.0393707 -0.0421571 -0.0440137 -0.0341444 -0.0351353 -0.0393707 -0.0405032 -0.0351353 -0.0356303 -0.0405032 -0.0410735 -0.0393707 -0.0405032 -0.0440137 -0.0452903 -0.0405032 -0.0410735 -0.0452903 -0.0459495 -0.0397634 -0.0421571 -0.043683 -0.0463204 -0.0421571 -0.0440137 -0.0463204 -0.0483822 -0.043683 -0.0463204 -0.0475468 -0.0504474 -0.0463204 -0.0483822 -0.0504474 -0.0527404 -0.0440137 -0.0452903 -0.0483822 -0.0498214 -0.0452903 -0.0459495 -0.0498214 -0.0505954 -0.0483822 -0.0498214 -0.0527404 -0.0543741 -0.0498214 -0.0505954 -0.0543741 -0.0553 -0.000200668 -0.000908437 6.07421e-05 -0.00102183 -0.000908437 -0.0033309 -0.00102183 -0.00360952 6.07421e-05 -0.00102183 0.000415336 -0.00115277 -0.00102183 -0.00360952 -0.00115277 -0.00390358 -0.0033309 -0.00687174 -0.00360952 -0.00746641 -0.00687174 -0.0111921 -0.00746641 -0.0121552 -0.00360952 -0.00746641 -0.00390358 -0.00809785 -0.00746641 -0.0121552 -0.00809785 -0.0131762 0.000415336 -0.00115277 0.000869166 -0.00130611 -0.00115277 -0.00390358 -0.00130611 -0.00422687 0.000869166 -0.00130611 0.0014296 -0.00148626 -0.00130611 -0.00422687 -0.00148626 -0.00459122 -0.00390358 -0.00809785 -0.00422687 -0.00879338 -0.00809785 -0.0131762 -0.00879338 -0.0142966 -0.00422687 -0.00879338 -0.00459122 -0.0095766 -0.00879338 -0.0142966 -0.0095766 -0.0155521 -0.0111921 -0.0159929 -0.0121552 -0.0173603 -0.0159929 -0.0210305 -0.0173603 -0.0228136 -0.0121552 -0.0173603 -0.0131762 -0.0188095 -0.0173603 -0.0228136 -0.0188095 -0.0247034 -0.0210305 -0.0261068 -0.0228136 -0.0283023 -0.0261068 -0.0310642 -0.0283023 -0.0336592 -0.0228136 -0.0283023 -0.0247034 -0.03063 -0.0283023 -0.0336592 -0.03063 -0.0364131 -0.0131762 -0.0188095 -0.0142966 -0.0203955 -0.0188095 -0.0247034 -0.0203955 -0.0267673 -0.0142966 -0.0203955 -0.0155521 -0.0221654 -0.0203955 -0.0267673 -0.0221654 -0.0290614 -0.0247034 -0.03063 -0.0267673 -0.0331682 -0.03063 -0.0364131 -0.0331682 -0.0394129 -0.0267673 -0.0331682 -0.0290614 -0.0359801 -0.0331682 -0.0394129 -0.0359801 -0.042727 0.0014296 -0.00148626 0.00210563 -0.00169767 -0.00148626 -0.00459122 -0.00169767 -0.00500755 0.00210563 -0.00169767 0.00290811 -0.00194523 -0.00169767 -0.00500755 -0.00194523 -0.00548726 -0.00459122 -0.0095766 -0.00500755 -0.0104693 -0.0095766 -0.0155521 -0.0104693 -0.016975 -0.00500755 -0.0104693 -0.00548726 -0.0114936 -0.0104693 -0.016975 -0.0114936 -0.0185973 0.00290811 -0.00194523 0.00385017 -0.00223478 -0.00194523 -0.00548726 -0.00223478 -0.00604357 0.00385017 -0.00223478 0.00494765 -0.00257372 -0.00223478 -0.00604357 -0.00257372 -0.00669314 -0.00548726 -0.0114936 -0.00604357 -0.0126746 -0.0114936 -0.0185973 -0.0126746 -0.0204539 -0.00604357 -0.0126746 -0.00669314 -0.0140428 -0.0126746 -0.0204539 -0.0140428 -0.0225855 -0.0155521 -0.0221654 -0.016975 -0.0241604 -0.0221654 -0.0290614 -0.0241604 -0.0316338 -0.016975 -0.0241604 -0.0185973 -0.0264201 -0.0241604 -0.0316338 -0.0264201 -0.0345281 -0.0290614 -0.0359801 -0.0316338 -0.0391176 -0.0359801 -0.042727 -0.0391176 -0.0464085 -0.0316338 -0.0391176 -0.0345281 -0.0426248 -0.0391176 -0.0464085 -0.0426248 -0.0504988 -0.0185973 -0.0264201 -0.0204539 -0.0289854 -0.0264201 -0.0345281 -0.0289854 -0.0377866 -0.0204539 -0.0289854 -0.0225855 -0.0319017 -0.0289854 -0.0377866 -0.0319017 -0.0414526 -0.0345281 -0.0426248 -0.0377866 -0.0465405 -0.0426248 -0.0504988 -0.0465405 -0.0550292 -0.0377866 -0.0465405 -0.0414526 -0.0508996 -0.0465405 -0.0550292 -0.0508996 -0.0600199 -0.0310642 -0.0357777 -0.0336592 -0.0387547 -0.0357777 -0.0401478 -0.0387547 -0.0434869 -0.0336592 -0.0387547 -0.0364131 -0.0419184 -0.0387547 -0.0434869 -0.0419184 -0.0470425 -0.0401478 -0.0440936 -0.0434869 -0.0477738 -0.0440936 -0.0475468 -0.0477738 -0.0515464 -0.0434869 -0.0477738 -0.0470425 -0.0517038 -0.0477738 -0.0515464 -0.0517038 -0.0558333 -0.0364131 -0.0419184 -0.0394129 -0.0453633 -0.0419184 -0.0470425 -0.0453633 -0.0509161 -0.0394129 -0.0453633 -0.042727 -0.0491614 -0.0453633 -0.0509161 -0.0491614 -0.0551818 -0.0470425 -0.0517038 -0.0509161 -0.055991 -0.0517038 -0.0558333 -0.055991 -0.0605211 -0.0509161 -0.055991 -0.0551818 -0.0607116 -0.055991 -0.0605211 -0.0607116 -0.0656882 -0.0475468 -0.0504474 -0.0515464 -0.054743 -0.0504474 -0.0527404 -0.054743 -0.0573057 -0.0515464 -0.054743 -0.0558333 -0.0593688 -0.054743 -0.0573057 -0.0593688 -0.0622501 -0.0527404 -0.0543741 -0.0573057 -0.059178 -0.0543741 -0.0553 -0.059178 -0.0603042 -0.0573057 -0.059178 -0.0622501 -0.0644157 -0.059178 -0.0603042 -0.0644157 -0.0658018 -0.0558333 -0.0593688 -0.0605211 -0.0644452 -0.0593688 -0.0622501 -0.0644452 -0.0677018 -0.0605211 -0.0644452 -0.0656882 -0.0700538 -0.0644452 -0.0677018 -0.0700538 -0.0737478 -0.0622501 -0.0644157 -0.0677018 -0.0702253 -0.0644157 -0.0658018 -0.0702253 -0.0719434 -0.0677018 -0.0702253 -0.0737478 -0.0767019 -0.0702253 -0.0719434 -0.0767019 -0.0788363 -0.042727 -0.0491614 -0.0464085 -0.0533652 -0.0491614 -0.0551818 -0.0533652 -0.05989 -0.0464085 -0.0533652 -0.0504988 -0.0580104 -0.0533652 -0.05989 -0.0580104 -0.065069 -0.0551818 -0.0607116 -0.05989 -0.0659131 -0.0607116 -0.0656882 -0.0659131 -0.0713796 -0.05989 -0.0659131 -0.065069 -0.0716155 -0.0659131 -0.0713796 -0.0716155 -0.0776068 -0.0504988 -0.0580104 -0.0550292 -0.063117 -0.0580104 -0.065069 -0.063117 -0.0707249 -0.0550292 -0.063117 -0.0600199 -0.0686865 -0.063117 -0.0707249 -0.0686865 -0.0768362 -0.065069 -0.0716155 -0.0707249 -0.0778089 -0.0716155 -0.0776068 -0.0778089 -0.0843431 -0.0707249 -0.0778089 -0.0768362 -0.0844461 -0.0778089 -0.0843431 -0.0844461 -0.0915136 -0.0656882 -0.0700538 -0.0713796 -0.0762383 -0.0700538 -0.0737478 -0.0762383 -0.0804332 -0.0713796 -0.0762383 -0.0776068 -0.083003 -0.0762383 -0.0804332 -0.083003 -0.0877577 -0.0737478 -0.0767019 -0.0804332 -0.0838964 -0.0767019 -0.0788363 -0.0838964 -0.0865425 -0.0804332 -0.0838964 -0.0877577 -0.091808 -0.0838964 -0.0865425 -0.091808 -0.0950677 -0.0776068 -0.083003 -0.0843431 -0.0903051 -0.083003 -0.0877577 -0.0903051 -0.095664 -0.0843431 -0.0903051 -0.0915136 -0.0980404 -0.0903051 -0.095664 -0.0980404 -0.104019 -0.0877577 -0.091808 -0.095664 -0.100369 -0.091808 -0.0950677 -0.100369 -0.104341 -0.095664 -0.100369 -0.104019 -0.109421 -0.100369 -0.104341 -0.109421 -0.11418 -9.316e-05 -9.43967e-05 -0.0118694 -0.0118807 -9.43967e-05 -9.36789e-05 -0.0118807 -0.0117025 -0.0118694 -0.0118807 -0.0214691 -0.0214711 -0.0118807 -0.0117025 -0.0214711 -0.0211386 -9.36789e-05 -9.08447e-05 -0.0117025 -0.011331 -9.08447e-05 -8.5778e-05 -0.011331 -0.0107668 -0.0117025 -0.011331 -0.0211386 -0.0204665 -0.011331 -0.0107668 -0.0204665 -0.0194577 -0.0214691 -0.0214711 -0.0292378 -0.0292241 -0.0214711 -0.0211386 -0.0292241 -0.0287643 -0.0292378 -0.0292241 -0.0356303 -0.0356066 -0.0292241 -0.0287643 -0.0356066 -0.0350485 -0.0211386 -0.0204665 -0.0287643 -0.027853 -0.0204665 -0.0194577 -0.027853 -0.0264954 -0.0287643 -0.027853 -0.0350485 -0.0339503 -0.027853 -0.0264954 -0.0339503 -0.0323182 -8.5778e-05 -7.84274e-05 -0.0107668 -0.0100163 -7.84274e-05 -6.88245e-05 -0.0100163 -0.00909262 -0.0107668 -0.0100163 -0.0194577 -0.0181248 -0.0100163 -0.00909262 -0.0181248 -0.0164927 -6.88245e-05 -5.71155e-05 -0.00909262 -0.00801771 -5.71155e-05 -4.36023e-05 -0.00801771 -0.00682327 -0.00909262 -0.00801771 -0.0164927 -0.0146004 -0.00801771 -0.00682327 -0.0146004 -0.0125037 -0.0194577 -0.0181248 -0.0264954 -0.0247094 -0.0181248 -0.0164927 -0.0247094 -0.0225287 -0.0264954 -0.0247094 -0.0323182 -0.0301737 -0.0247094 -0.0225287 -0.0301737 -0.0275567 -0.0164927 -0.0146004 -0.0225287 -0.0200055 -0.0146004 -0.0125037 -0.0200055 -0.017213 -0.0225287 -0.0200055 -0.0275567 -0.0245288 -0.0200055 -0.017213 -0.0245288 -0.0211758 -0.0356303 -0.0356066 -0.0410735 -0.0410551 -0.0356066 -0.0350485 -0.0410551 -0.0404296 -0.0410735 -0.0410551 -0.0459495 -0.0459603 -0.0410551 -0.0404296 -0.0459603 -0.0452998 -0.0350485 -0.0339503 -0.0404296 -0.039189 -0.0339503 -0.0323182 -0.039189 -0.0373391 -0.0404296 -0.039189 -0.0452998 -0.0439562 -0.039189 -0.0373391 -0.0439562 -0.0419322 -0.0459495 -0.0459603 -0.0505954 -0.0506672 -0.0459603 -0.0452998 -0.0506672 -0.0500076 -0.0505954 -0.0506672 -0.0553 -0.0554735 -0.0506672 -0.0500076 -0.0554735 -0.0548561 -0.0452998 -0.0439562 -0.0500076 -0.0485982 -0.0439562 -0.0419322 -0.0485982 -0.0464358 -0.0500076 -0.0485982 -0.0548561 -0.0534199 -0.0485982 -0.0464358 -0.0534199 -0.0511522 -0.0323182 -0.0301737 -0.0373391 -0.0349025 -0.0301737 -0.0275567 -0.0349025 -0.0319231 -0.0373391 -0.0349025 -0.0419322 -0.0392494 -0.0349025 -0.0319231 -0.0392494 -0.0359527 -0.0275567 -0.0245288 -0.0319231 -0.0284691 -0.0245288 -0.0211758 -0.0284691 -0.0246359 -0.0319231 -0.0284691 -0.0359527 -0.032115 -0.0284691 -0.0246359 -0.032115 -0.0278401 -0.0419322 -0.0392494 -0.0464358 -0.0435379 -0.0392494 -0.0359527 -0.0435379 -0.0399482 -0.0464358 -0.0435379 -0.0511522 -0.0480627 -0.0435379 -0.0399482 -0.0480627 -0.0441905 -0.0359527 -0.032115 -0.0399482 -0.0357421 -0.032115 -0.0278401 -0.0357421 -0.0310315 -0.0399482 -0.0357421 -0.0441905 -0.039612 -0.0357421 -0.0310315 -0.039612 -0.0344462 -4.36023e-05 -2.87582e-05 -0.00682327 -0.00555239 -2.87582e-05 -1.33474e-05 -0.00555239 -0.00425996 -0.00682327 -0.00555239 -0.0125037 -0.0102767 -0.00555239 -0.00425996 -0.0102767 -0.00801214 -1.33474e-05 1.86846e-06 -0.00425996 -0.003015 1.86846e-06 1.41379e-05 -0.003015 -0.00188691 -0.00425996 -0.003015 -0.00801214 -0.00582264 -0.003015 -0.00188691 -0.00582264 -0.003823 -0.0125037 -0.0102767 -0.017213 -0.0142469 -0.0102767 -0.00801214 -0.0142469 -0.0112256 -0.017213 -0.0142469 -0.0211758 -0.0176094 -0.0142469 -0.0112256 -0.0176094 -0.0139665 -0.00801214 -0.00582264 -0.0112256 -0.00828958 -0.00582264 -0.003823 -0.00828958 -0.00558276 -0.0112256 -0.00828958 -0.0139665 -0.0104082 -0.00828958 -0.00558276 -0.0104082 -0.00710072 1.41379e-05 2.29797e-05 -0.00188691 -0.00100582 2.29797e-05 5.26183e-05 -0.00100582 -0.00017682 -0.00188691 -0.00100582 -0.003823 -0.0021945 -0.00100582 -0.00017682 -0.0021945 -0.000750676 5.26183e-05 -9.14102e-06 -0.00017682 -0.000849997 -9.14102e-06 0.0070574 -0.000849997 0.00627194 -0.00017682 -0.000849997 -0.000750676 -0.0010539 -0.000849997 0.00627194 -0.0010539 0.00650678 -0.003823 -0.0021945 -0.00558276 -0.00331437 -0.0021945 -0.000750676 -0.00331437 -0.00132839 -0.00558276 -0.00331437 -0.00710072 -0.00427737 -0.00331437 -0.00132839 -0.00427737 -0.00181978 -0.000750676 -0.0010539 -0.00132839 -0.0012305 -0.0010539 0.00650678 -0.0012305 0.00633151 -0.00132839 -0.0012305 -0.00181978 -0.0013576 -0.0012305 0.00633151 -0.0013576 0.00619206 -0.0211758 -0.0176094 -0.0246359 -0.0205485 -0.0176094 -0.0139665 -0.0205485 -0.0163596 -0.0246359 -0.0205485 -0.0278401 -0.0232654 -0.0205485 -0.0163596 -0.0232654 -0.0185606 -0.0139665 -0.0104082 -0.0163596 -0.0122494 -0.0104082 -0.00710072 -0.0122494 -0.0084066 -0.0163596 -0.0122494 -0.0185606 -0.0139269 -0.0122494 -0.0084066 -0.0139269 -0.00957826 -0.0278401 -0.0232654 -0.0310315 -0.0259671 -0.0232654 -0.0185606 -0.0259671 -0.0207384 -0.0310315 -0.0259671 -0.0344462 -0.0288595 -0.0259671 -0.0207384 -0.0288595 -0.0230648 -0.0185606 -0.0139269 -0.0207384 -0.0155717 -0.0139269 -0.00957826 -0.0155717 -0.0107114 -0.0207384 -0.0155717 -0.0230648 -0.0173198 -0.0155717 -0.0107114 -0.0173198 -0.0119061 -0.00710072 -0.00427737 -0.0084066 -0.0050904 -0.00427737 -0.00181978 -0.0050904 -0.00222054 -0.0084066 -0.0050904 -0.00957826 -0.00580399 -0.0050904 -0.00222054 -0.00580399 -0.00256074 -0.00181978 -0.0013576 -0.00222054 -0.00145696 -0.0013576 0.00619206 -0.00145696 0.00610354 -0.00222054 -0.00145696 -0.00256074 -0.00154332 -0.00145696 0.00610354 -0.00154332 0.00606521 -0.00957826 -0.00580399 -0.0107114 -0.00648184 -0.00580399 -0.00256074 -0.00648184 -0.00287505 -0.0107114 -0.00648184 -0.0119061 -0.00718909 -0.00648184 -0.00287505 -0.00718909 -0.00319734 -0.00256074 -0.00154332 -0.00287505 -0.00162767 -0.00154332 0.00606521 -0.00162767 0.00608012 -0.00287505 -0.00162767 -0.00319734 -0.00172019 -0.00162767 0.00608012 -0.00172019 0.00614653 -0.0553 -0.0554735 -0.0603042 -0.0606298 -0.0554735 -0.0548561 -0.0606298 -0.0601047 -0.0603042 -0.0606298 -0.0658018 -0.0663425 -0.0606298 -0.0601047 -0.0663425 -0.0659725 -0.0548561 -0.0534199 -0.0601047 -0.0586872 -0.0534199 -0.0511522 -0.0586872 -0.0563508 -0.0601047 -0.0586872 -0.0659725 -0.064632 -0.0586872 -0.0563508 -0.064632 -0.0622748 -0.0658018 -0.0663425 -0.0719434 -0.072777 -0.0663425 -0.0659725 -0.072777 -0.0726423 -0.0719434 -0.072777 -0.0788363 -0.0800578 -0.072777 -0.0726423 -0.0800578 -0.0802616 -0.0659725 -0.064632 -0.0726423 -0.0714566 -0.064632 -0.0622748 -0.0714566 -0.0691468 -0.0726423 -0.0714566 -0.0802616 -0.0793358 -0.0714566 -0.0691468 -0.0793358 -0.0771727 -0.0511522 -0.0480627 -0.0563508 -0.0530927 -0.0480627 -0.0441905 -0.0530927 -0.0489431 -0.0563508 -0.0530927 -0.0622748 -0.0588792 -0.0530927 -0.0489431 -0.0588792 -0.0544604 -0.0441905 -0.039612 -0.0489431 -0.043976 -0.039612 -0.0344462 -0.043976 -0.0383169 -0.0489431 -0.043976 -0.0544604 -0.0490848 -0.043976 -0.0383169 -0.0490848 -0.0428819 -0.0622748 -0.0588792 -0.0691468 -0.0656637 -0.0588792 -0.0544604 -0.0656637 -0.0609983 -0.0691468 -0.0656637 -0.0771727 -0.073684 -0.0656637 -0.0609983 -0.073684 -0.0688233 -0.0544604 -0.0490848 -0.0609983 -0.0552011 -0.0490848 -0.0428819 -0.0552011 -0.0484 -0.0609983 -0.0552011 -0.0688233 -0.0626121 -0.0552011 -0.0484 -0.0626121 -0.0551661 -0.0788363 -0.0800578 -0.0865425 -0.0882651 -0.0800578 -0.0802616 -0.0882651 -0.0889364 -0.0865425 -0.0882651 -0.0950677 -0.0974199 -0.0882651 -0.0889364 -0.0974199 -0.0987144 -0.0802616 -0.0793358 -0.0889364 -0.0884108 -0.0793358 -0.0771727 -0.0884108 -0.0865357 -0.0889364 -0.0884108 -0.0987144 -0.098768 -0.0884108 -0.0865357 -0.098768 -0.0973745 -0.0950677 -0.0974199 -0.104341 -0.107457 -0.0974199 -0.0987144 -0.107457 -0.10955 -0.104341 -0.107457 -0.11418 -0.118182 -0.107457 -0.10955 -0.118182 -0.121249 -0.0987144 -0.098768 -0.10955 -0.110398 -0.098768 -0.0973745 -0.110398 -0.109735 -0.10955 -0.110398 -0.121249 -0.123129 -0.110398 -0.109735 -0.123129 -0.12349 -0.0771727 -0.073684 -0.0865357 -0.0831702 -0.073684 -0.0688233 -0.0831702 -0.0782124 -0.0865357 -0.0831702 -0.0973745 -0.0943237 -0.0831702 -0.0782124 -0.0943237 -0.0894348 -0.0688233 -0.0626121 -0.0782124 -0.0716347 -0.0626121 -0.0551661 -0.0716347 -0.0635222 -0.0782124 -0.0716347 -0.0894348 -0.0826027 -0.0716347 -0.0635222 -0.0826027 -0.0738524 -0.0973745 -0.0943237 -0.109735 -0.107265 -0.0943237 -0.0894348 -0.107265 -0.1027 -0.109735 -0.107265 -0.12349 -0.121939 -0.107265 -0.1027 -0.121939 -0.118055 -0.0894348 -0.0826027 -0.1027 -0.0958193 -0.0826027 -0.0738524 -0.0958193 -0.0865447