# vtk DataFile Version 3.0
#This file was generated by the deal.II library on 2026/1/5 at 14:19:33
ASCII
DATASET UNSTRUCTURED_GRID

POINTS 4096 double
0 0 0
0.03125 0 0
0 0.03125 0
0.03125 0.03125 0
0.03125 0 0
0.0625 0 0
0.03125 0.03125 0
0.0625 0.03125 0
0 0.03125 0
0.03125 0.03125 0
0 0.0625 0
0.03125 0.0625 0
0.03125 0.03125 0
0.0625 0.03125 0
0.03125 0.0625 0
0.0625 0.0625 0
0.0625 0 0
0.09375 0 0
0.0625 0.03125 0
0.09375 0.03125 0
0.09375 0 0
0.125 0 0
0.09375 0.03125 0
0.125 0.03125 0
0.0625 0.03125 0
0.09375 0.03125 0
0.0625 0.0625 0
0.09375 0.0625 0
0.09375 0.03125 0
0.125 0.03125 0
0.09375 0.0625 0
0.125 0.0625 0
0 0.0625 0
0.03125 0.0625 0
0 0.09375 0
0.03125 0.09375 0
0.03125 0.0625 0
0.0625 0.0625 0
0.03125 0.09375 0
0.0625 0.09375 0
0 0.09375 0
0.03125 0.09375 0
0 0.125 0
0.03125 0.125 0
0.03125 0.09375 0
0.0625 0.09375 0
0.03125 0.125 0
0.0625 0.125 0
0.0625 0.0625 0
0.09375 0.0625 0
0.0625 0.09375 0
0.09375 0.09375 0
0.09375 0.0625 0
0.125 0.0625 0
0.09375 0.09375 0
0.125 0.09375 0
0.0625 0.09375 0
0.09375 0.09375 0
0.0625 0.125 0
0.09375 0.125 0
0.09375 0.09375 0
0.125 0.09375 0
0.09375 0.125 0
0.125 0.125 0
0.125 0 0
0.15625 0 0
0.125 0.03125 0
0.15625 0.03125 0
0.15625 0 0
0.1875 0 0
0.15625 0.03125 0
0.1875 0.03125 0
0.125 0.03125 0
0.15625 0.03125 0
0.125 0.0625 0
0.15625 0.0625 0
0.15625 0.03125 0
0.1875 0.03125 0
0.15625 0.0625 0
0.1875 0.0625 0
0.1875 0 0
0.21875 0 0
0.1875 0.03125 0
0.21875 0.03125 0
0.21875 0 0
0.25 0 0
0.21875 0.03125 0
0.25 0.03125 0
0.1875 0.03125 0
0.21875 0.03125 0
0.1875 0.0625 0
0.21875 0.0625 0
0.21875 0.03125 0
0.25 0.03125 0
0.21875 0.0625 0
0.25 0.0625 0
0.125 0.0625 0
0.15625 0.0625 0
0.125 0.09375 0
0.15625 0.09375 0
0.15625 0.0625 0
0.1875 0.0625 0
0.15625 0.09375 0
0.1875 0.09375 0
0.125 0.09375 0
0.15625 0.09375 0
0.125 0.125 0
0.15625 0.125 0
0.15625 0.09375 0
0.1875 0.09375 0
0.15625 0.125 0
0.1875 0.125 0
0.1875 0.0625 0
0.21875 0.0625 0
0.1875 0.09375 0
0.21875 0.09375 0
0.21875 0.0625 0
0.25 0.0625 0
0.21875 0.09375 0
0.25 0.09375 0
0.1875 0.09375 0
0.21875 0.09375 0
0.1875 0.125 0
0.21875 0.125 0
0.21875 0.09375 0
0.25 0.09375 0
0.21875 0.125 0
0.25 0.125 0
0 0.125 0
0.03125 0.125 0
0 0.15625 0
0.03125 0.15625 0
0.03125 0.125 0
0.0625 0.125 0
0.03125 0.15625 0
0.0625 0.15625 0
0 0.15625 0
0.03125 0.15625 0
0 0.1875 0
0.03125 0.1875 0
0.03125 0.15625 0
0.0625 0.15625 0
0.03125 0.1875 0
0.0625 0.1875 0
0.0625 0.125 0
0.09375 0.125 0
0.0625 0.15625 0
0.09375 0.15625 0
0.09375 0.125 0
0.125 0.125 0
0.09375 0.15625 0
0.125 0.15625 0
0.0625 0.15625 0
0.09375 0.15625 0
0.0625 0.1875 0
0.09375 0.1875 0
0.09375 0.15625 0
0.125 0.15625 0
0.09375 0.1875 0
0.125 0.1875 0
0 0.1875 0
0.03125 0.1875 0
0 0.21875 0
0.03125 0.21875 0
0.03125 0.1875 0
0.0625 0.1875 0
0.03125 0.21875 0
0.0625 0.21875 0
0 0.21875 0
0.03125 0.21875 0
0 0.25 0
0.03125 0.25 0
0.03125 0.21875 0
0.0625 0.21875 0
0.03125 0.25 0
0.0625 0.25 0
0.0625 0.1875 0
0.09375 0.1875 0
0.0625 0.21875 0
0.09375 0.21875 0
0.09375 0.1875 0
0.125 0.1875 0
0.09375 0.21875 0
0.125 0.21875 0
0.0625 0.21875 0
0.09375 0.21875 0
0.0625 0.25 0
0.09375 0.25 0
0.09375 0.21875 0
0.125 0.21875 0
0.09375 0.25 0
0.125 0.25 0
0.125 0.125 0
0.15625 0.125 0
0.125 0.15625 0
0.15625 0.15625 0
0.15625 0.125 0
0.1875 0.125 0
0.15625 0.15625 0
0.1875 0.15625 0
0.125 0.15625 0
0.15625 0.15625 0
0.125 0.1875 0
0.15625 0.1875 0
0.15625 0.15625 0
0.1875 0.15625 0
0.15625 0.1875 0
0.1875 0.1875 0
0.1875 0.125 0
0.21875 0.125 0
0.1875 0.15625 0
0.21875 0.15625 0
0.21875 0.125 0
0.25 0.125 0
0.21875 0.15625 0
0.25 0.15625 0
0.1875 0.15625 0
0.21875 0.15625 0
0.1875 0.1875 0
0.21875 0.1875 0
0.21875 0.15625 0
0.25 0.15625 0
0.21875 0.1875 0
0.25 0.1875 0
0.125 0.1875 0
0.15625 0.1875 0
0.125 0.21875 0
0.15625 0.21875 0
0.15625 0.1875 0
0.1875 0.1875 0
0.15625 0.21875 0
0.1875 0.21875 0
0.125 0.21875 0
0.15625 0.21875 0
0.125 0.25 0
0.15625 0.25 0
0.15625 0.21875 0
0.1875 0.21875 0
0.15625 0.25 0
0.1875 0.25 0
0.1875 0.1875 0
0.21875 0.1875 0
0.1875 0.21875 0
0.21875 0.21875 0
0.21875 0.1875 0
0.25 0.1875 0
0.21875 0.21875 0
0.25 0.21875 0
0.1875 0.21875 0
0.21875 0.21875 0
0.1875 0.25 0
0.21875 0.25 0
0.21875 0.21875 0
0.25 0.21875 0
0.21875 0.25 0
0.25 0.25 0
0.25 0 0
0.28125 0 0
0.25 0.03125 0
0.28125 0.03125 0
0.28125 0 0
0.3125 0 0
0.28125 0.03125 0
0.3125 0.03125 0
0.25 0.03125 0
0.28125 0.03125 0
0.25 0.0625 0
0.28125 0.0625 0
0.28125 0.03125 0
0.3125 0.03125 0
0.28125 0.0625 0
0.3125 0.0625 0
0.3125 0 0
0.34375 0 0
0.3125 0.03125 0
0.34375 0.03125 0
0.34375 0 0
0.375 0 0
0.34375 0.03125 0
0.375 0.03125 0
0.3125 0.03125 0
0.34375 0.03125 0
0.3125 0.0625 0
0.34375 0.0625 0
0.34375 0.03125 0
0.375 0.03125 0
0.34375 0.0625 0
0.375 0.0625 0
0.25 0.0625 0
0.28125 0.0625 0
0.25 0.09375 0
0.28125 0.09375 0
0.28125 0.0625 0
0.3125 0.0625 0
0.28125 0.09375 0
0.3125 0.09375 0
0.25 0.09375 0
0.28125 0.09375 0
0.25 0.125 0
0.28125 0.125 0
0.28125 0.09375 0
0.3125 0.09375 0
0.28125 0.125 0
0.3125 0.125 0
0.3125 0.0625 0
0.34375 0.0625 0
0.3125 0.09375 0
0.34375 0.09375 0
0.34375 0.0625 0
0.375 0.0625 0
0.34375 0.09375 0
0.375 0.09375 0
0.3125 0.09375 0
0.34375 0.09375 0
0.3125 0.125 0
0.34375 0.125 0
0.34375 0.09375 0
0.375 0.09375 0
0.34375 0.125 0
0.375 0.125 0
0.375 0 0
0.40625 0 0
0.375 0.03125 0
0.40625 0.03125 0
0.40625 0 0
0.4375 0 0
0.40625 0.03125 0
0.4375 0.03125 0
0.375 0.03125 0
0.40625 0.03125 0
0.375 0.0625 0
0.40625 0.0625 0
0.40625 0.03125 0
0.4375 0.03125 0
0.40625 0.0625 0
0.4375 0.0625 0
0.4375 0 0
0.46875 0 0
0.4375 0.03125 0
0.46875 0.03125 0
0.46875 0 0
0.5 0 0
0.46875 0.03125 0
0.5 0.03125 0
0.4375 0.03125 0
0.46875 0.03125 0
0.4375 0.0625 0
0.46875 0.0625 0
0.46875 0.03125 0
0.5 0.03125 0
0.46875 0.0625 0
0.5 0.0625 0
0.375 0.0625 0
0.40625 0.0625 0
0.375 0.09375 0
0.40625 0.09375 0
0.40625 0.0625 0
0.4375 0.0625 0
0.40625 0.09375 0
0.4375 0.09375 0
0.375 0.09375 0
0.40625 0.09375 0
0.375 0.125 0
0.40625 0.125 0
0.40625 0.09375 0
0.4375 0.09375 0
0.40625 0.125 0
0.4375 0.125 0
0.4375 0.0625 0
0.46875 0.0625 0
0.4375 0.09375 0
0.46875 0.09375 0
0.46875 0.0625 0
0.5 0.0625 0
0.46875 0.09375 0
0.5 0.09375 0
0.4375 0.09375 0
0.46875 0.09375 0
0.4375 0.125 0
0.46875 0.125 0
0.46875 0.09375 0
0.5 0.09375 0
0.46875 0.125 0
0.5 0.125 0
0.25 0.125 0
0.28125 0.125 0
0.25 0.15625 0
0.28125 0.15625 0
0.28125 0.125 0
0.3125 0.125 0
0.28125 0.15625 0
0.3125 0.15625 0
0.25 0.15625 0
0.28125 0.15625 0
0.25 0.1875 0
0.28125 0.1875 0
0.28125 0.15625 0
0.3125 0.15625 0
0.28125 0.1875 0
0.3125 0.1875 0
0.3125 0.125 0
0.34375 0.125 0
0.3125 0.15625 0
0.34375 0.15625 0
0.34375 0.125 0
0.375 0.125 0
0.34375 0.15625 0
0.375 0.15625 0
0.3125 0.15625 0
0.34375 0.15625 0
0.3125 0.1875 0
0.34375 0.1875 0
0.34375 0.15625 0
0.375 0.15625 0
0.34375 0.1875 0
0.375 0.1875 0
0.25 0.1875 0
0.28125 0.1875 0
0.25 0.21875 0
0.28125 0.21875 0
0.28125 0.1875 0
0.3125 0.1875 0
0.28125 0.21875 0
0.3125 0.21875 0
0.25 0.21875 0
0.28125 0.21875 0
0.25 0.25 0
0.28125 0.25 0
0.28125 0.21875 0
0.3125 0.21875 0
0.28125 0.25 0
0.3125 0.25 0
0.3125 0.1875 0
0.34375 0.1875 0
0.3125 0.21875 0
0.34375 0.21875 0
0.34375 0.1875 0
0.375 0.1875 0
0.34375 0.21875 0
0.375 0.21875 0
0.3125 0.21875 0
0.34375 0.21875 0
0.3125 0.25 0
0.34375 0.25 0
0.34375 0.21875 0
0.375 0.21875 0
0.34375 0.25 0
0.375 0.25 0
0.375 0.125 0
0.40625 0.125 0
0.375 0.15625 0
0.40625 0.15625 0
0.40625 0.125 0
0.4375 0.125 0
0.40625 0.15625 0
0.4375 0.15625 0
0.375 0.15625 0
0.40625 0.15625 0
0.375 0.1875 0
0.40625 0.1875 0
0.40625 0.15625 0
0.4375 0.15625 0
0.40625 0.1875 0
0.4375 0.1875 0
0.4375 0.125 0
0.46875 0.125 0
0.4375 0.15625 0
0.46875 0.15625 0
0.46875 0.125 0
0.5 0.125 0
0.46875 0.15625 0
0.5 0.15625 0
0.4375 0.15625 0
0.46875 0.15625 0
0.4375 0.1875 0
0.46875 0.1875 0
0.46875 0.15625 0
0.5 0.15625 0
0.46875 0.1875 0
0.5 0.1875 0
0.375 0.1875 0
0.40625 0.1875 0
0.375 0.21875 0
0.40625 0.21875 0
0.40625 0.1875 0
0.4375 0.1875 0
0.40625 0.21875 0
0.4375 0.21875 0
0.375 0.21875 0
0.40625 0.21875 0
0.375 0.25 0
0.40625 0.25 0
0.40625 0.21875 0
0.4375 0.21875 0
0.40625 0.25 0
0.4375 0.25 0
0.4375 0.1875 0
0.46875 0.1875 0
0.4375 0.21875 0
0.46875 0.21875 0
0.46875 0.1875 0
0.5 0.1875 0
0.46875 0.21875 0
0.5 0.21875 0
0.4375 0.21875 0
0.46875 0.21875 0
0.4375 0.25 0
0.46875 0.25 0
0.46875 0.21875 0
0.5 0.21875 0
0.46875 0.25 0
0.5 0.25 0
0 0.25 0
0.03125 0.25 0
0 0.28125 0
0.03125 0.28125 0
0.03125 0.25 0
0.0625 0.25 0
0.03125 0.28125 0
0.0625 0.28125 0
0 0.28125 0
0.03125 0.28125 0
0 0.3125 0
0.03125 0.3125 0
0.03125 0.28125 0
0.0625 0.28125 0
0.03125 0.3125 0
0.0625 0.3125 0
0.0625 0.25 0
0.09375 0.25 0
0.0625 0.28125 0
0.09375 0.28125 0
0.09375 0.25 0
0.125 0.25 0
0.09375 0.28125 0
0.125 0.28125 0
0.0625 0.28125 0
0.09375 0.28125 0
0.0625 0.3125 0
0.09375 0.3125 0
0.09375 0.28125 0
0.125 0.28125 0
0.09375 0.3125 0
0.125 0.3125 0
0 0.3125 0
0.03125 0.3125 0
0 0.34375 0
0.03125 0.34375 0
0.03125 0.3125 0
0.0625 0.3125 0
0.03125 0.34375 0
0.0625 0.34375 0
0 0.34375 0
0.03125 0.34375 0
0 0.375 0
0.03125 0.375 0
0.03125 0.34375 0
0.0625 0.34375 0
0.03125 0.375 0
0.0625 0.375 0
0.0625 0.3125 0
0.09375 0.3125 0
0.0625 0.34375 0
0.09375 0.34375 0
0.09375 0.3125 0
0.125 0.3125 0
0.09375 0.34375 0
0.125 0.34375 0
0.0625 0.34375 0
0.09375 0.34375 0
0.0625 0.375 0
0.09375 0.375 0
0.09375 0.34375 0
0.125 0.34375 0
0.09375 0.375 0
0.125 0.375 0
0.125 0.25 0
0.15625 0.25 0
0.125 0.28125 0
0.15625 0.28125 0
0.15625 0.25 0
0.1875 0.25 0
0.15625 0.28125 0
0.1875 0.28125 0
0.125 0.28125 0
0.15625 0.28125 0
0.125 0.3125 0
0.15625 0.3125 0
0.15625 0.28125 0
0.1875 0.28125 0
0.15625 0.3125 0
0.1875 0.3125 0
0.1875 0.25 0
0.21875 0.25 0
0.1875 0.28125 0
0.21875 0.28125 0
0.21875 0.25 0
0.25 0.25 0
0.21875 0.28125 0
0.25 0.28125 0
0.1875 0.28125 0
0.21875 0.28125 0
0.1875 0.3125 0
0.21875 0.3125 0
0.21875 0.28125 0
0.25 0.28125 0
0.21875 0.3125 0
0.25 0.3125 0
0.125 0.3125 0
0.15625 0.3125 0
0.125 0.34375 0
0.15625 0.34375 0
0.15625 0.3125 0
0.1875 0.3125 0
0.15625 0.34375 0
0.1875 0.34375 0
0.125 0.34375 0
[...]
POINT_DATA 4096
SCALARS u_x double 1
LOOKUP_TABLE default
-2.00233e-06 1.49936e-05 -5.98075e-05 -8.82477e-05 1.49936e-05 2.04003e-05 -8.82477e-05 -0.000485286 -5.98075e-05 -8.82477e-05 -0.000181168 -0.000267723 -8.82477e-05 -0.000485286 -0.000267723 -0.00109573 2.04003e-05 1.38948e-05 -0.000485286 -0.00116721 1.38948e-05 1.8925e-06 -0.00116721 -0.00206146 -0.000485286 -0.00116721 -0.00109573 -0.00233928 -0.00116721 -0.00206146 -0.00233928 -0.00390213 -0.000181168 -0.000267723 -0.000291356 -0.00041819 -0.000267723 -0.00109573 -0.00041819 -0.00161615 -0.000291356 -0.00041819 -0.00034534 -0.000528923 -0.00041819 -0.00161615 -0.000528923 -0.00200541 -0.00109573 -0.00233928 -0.00161615 -0.00331501 -0.00233928 -0.00390213 -0.00331501 -0.00538927 -0.00161615 -0.00331501 -0.00200541 -0.0040598 -0.00331501 -0.00538927 -0.0040598 -0.00652692 1.8925e-06 -1.181e-05 -0.00206146 -0.00307326 -1.181e-05 -2.54558e-05 -0.00307326 -0.00412827 -0.00206146 -0.00307326 -0.00390213 -0.00564562 -0.00307326 -0.00412827 -0.00564562 -0.00745822 -2.54558e-05 -3.83737e-05 -0.00412827 -0.00517338 -3.83737e-05 -5.03431e-05 -0.00517338 -0.00617306 -0.00412827 -0.00517338 -0.00745822 -0.00925471 -0.00517338 -0.00617306 -0.00925471 -0.010975 -0.00390213 -0.00564562 -0.00538927 -0.00767046 -0.00564562 -0.00745822 -0.00767046 -0.0100279 -0.00538927 -0.00767046 -0.00652692 -0.00921198 -0.00767046 -0.0100279 -0.00921198 -0.0119703 -0.00745822 -0.00925471 -0.0100279 -0.0123593 -0.00925471 -0.010975 -0.0123593 -0.0145901 -0.0100279 -0.0123593 -0.0119703 -0.0146894 -0.0123593 -0.0145901 -0.0146894 -0.017287 -0.00034534 -0.000528923 -0.000324079 -0.000613869 -0.000528923 -0.00200541 -0.000613869 -0.00228788 -0.000324079 -0.000613869 -0.000220541 -0.000689062 -0.000613869 -0.00228788 -0.000689062 -0.00250405 -0.00200541 -0.0040598 -0.00228788 -0.00461941 -0.0040598 -0.00652692 -0.00461941 -0.00739457 -0.00228788 -0.00461941 -0.00250405 -0.00506402 -0.00461941 -0.00739457 -0.00506402 -0.00809553 -0.000220541 -0.000689062 -3.18537e-05 -0.000767237 -0.000689062 -0.00250405 -0.000767237 -0.00269083 -3.18537e-05 -0.000767237 0.000244178 -0.000857483 -0.000767237 -0.00269083 -0.000857483 -0.00287626 -0.00250405 -0.00506402 -0.00269083 -0.00545985 -0.00506402 -0.00809553 -0.00545985 -0.00872638 -0.00269083 -0.00545985 -0.00287626 -0.00585902 -0.00545985 -0.00872638 -0.00585902 -0.00936403 -0.00652692 -0.00921198 -0.00739457 -0.010396 -0.00921198 -0.0119703 -0.010396 -0.0134651 -0.00739457 -0.010396 -0.00809553 -0.0113639 -0.010396 -0.0134651 -0.0113639 -0.0146955 -0.0119703 -0.0146894 -0.0134651 -0.0164817 -0.0146894 -0.017287 -0.0164817 -0.0193581 -0.0134651 -0.0164817 -0.0146955 -0.0179625 -0.0164817 -0.0193581 -0.0179625 -0.0210729 -0.00809553 -0.0113639 -0.00872638 -0.0122435 -0.0113639 -0.0146955 -0.0122435 -0.0158216 -0.00872638 -0.0122435 -0.00936403 -0.0131363 -0.0122435 -0.0158216 -0.0131363 -0.0169687 -0.0146955 -0.0179625 -0.0158216 -0.0193246 -0.0179625 -0.0210729 -0.0193246 -0.0226556 -0.0158216 -0.0193246 -0.0169687 -0.0207161 -0.0193246 -0.0226556 -0.0207161 -0.0242763 -5.03431e-05 -6.13182e-05 -0.00617306 -0.00710372 -6.13182e-05 -7.12885e-05 -0.00710372 -0.00794895 -0.00617306 -0.00710372 -0.010975 -0.0125773 -0.00710372 -0.00794895 -0.0125773 -0.014032 -7.12885e-05 -8.02231e-05 -0.00794895 -0.0086964 -8.02231e-05 -8.8057e-05 -0.0086964 -0.00933592 -0.00794895 -0.0086964 -0.014032 -0.0153167 -0.0086964 -0.00933592 -0.0153167 -0.0164132 -0.010975 -0.0125773 -0.0145901 -0.0166671 -0.0125773 -0.014032 -0.0166671 -0.0185514 -0.0145901 -0.0166671 -0.017287 -0.0197031 -0.0166671 -0.0185514 -0.0197031 -0.0218934 -0.014032 -0.0153167 -0.0185514 -0.0202136 -0.0153167 -0.0164132 -0.0202136 -0.0216298 -0.0185514 -0.0202136 -0.0218934 -0.0238239 -0.0202136 -0.0216298 -0.0238239 -0.0254671 -8.8057e-05 -9.4696e-05 -0.00933592 -0.00985869 -9.4696e-05 -0.000100029 -0.00985869 -0.0102569 -0.00933592 -0.00985869 -0.0164132 -0.0173063 -0.00985869 -0.0102569 -0.0173063 -0.0179829 -0.000100029 -0.000103939 -0.0102569 -0.0105239 -0.000103939 -0.000106312 -0.0105239 -0.010654 -0.0102569 -0.0105239 -0.0179829 -0.0184317 -0.0105239 -0.010654 -0.0184317 -0.0186439 -0.0164132 -0.0173063 -0.0216298 -0.0227804 -0.0173063 -0.0179829 -0.0227804 -0.0236485 -0.0216298 -0.0227804 -0.0254671 -0.0268004 -0.0227804 -0.0236485 -0.0268004 -0.0278045 -0.0179829 -0.0184317 -0.0236485 -0.0242202 -0.0184317 -0.0186439 -0.0242202 -0.0244845 -0.0236485 -0.0242202 -0.0278045 -0.0284638 -0.0242202 -0.0244845 -0.0284638 -0.0287656 -0.017287 -0.0197031 -0.0193581 -0.0220306 -0.0197031 -0.0218934 -0.0220306 -0.0244519 -0.0193581 -0.0220306 -0.0210729 -0.0239601 -0.0220306 -0.0244519 -0.0239601 -0.0265748 -0.0218934 -0.0238239 -0.0244519 -0.026585 -0.0238239 -0.0254671 -0.026585 -0.0284005 -0.0244519 -0.026585 -0.0265748 -0.0288787 -0.026585 -0.0284005 -0.0288787 -0.0308409 -0.0210729 -0.0239601 -0.0226556 -0.0257456 -0.0239601 -0.0265748 -0.0257456 -0.0285438 -0.0226556 -0.0257456 -0.0242763 -0.0275775 -0.0257456 -0.0285438 -0.0275775 -0.0305674 -0.0265748 -0.0288787 -0.0285438 -0.0310108 -0.0288787 -0.0308409 -0.0310108 -0.033115 -0.0285438 -0.0310108 -0.0305674 -0.0332062 -0.0310108 -0.033115 -0.0332062 -0.0354617 -0.0254671 -0.0268004 -0.0284005 -0.0298736 -0.0268004 -0.0278045 -0.0298736 -0.0309837 -0.0284005 -0.0298736 -0.0308409 -0.0324354 -0.0298736 -0.0309837 -0.0324354 -0.0336405 -0.0278045 -0.0284638 -0.0309837 -0.0317136 -0.0284638 -0.0287656 -0.0317136 -0.0320496 -0.0309837 -0.0317136 -0.0336405 -0.0344377 -0.0317136 -0.0320496 -0.0344377 -0.0348121 -0.0308409 -0.0324354 -0.033115 -0.0348297 -0.0324354 -0.0336405 -0.0348297 -0.0361321 -0.033115 -0.0348297 -0.0354617 -0.0373067 -0.0348297 -0.0361321 -0.0373067 -0.0387176 -0.0336405 -0.0344377 -0.0361321 -0.0370027 -0.0344377 -0.0348121 -0.0370027 -0.037425 -0.0361321 -0.0370027 -0.0387176 -0.0396738 -0.0370027 -0.037425 -0.0396738 -0.0401572 0.000244178 -0.000857483 0.000610677 -0.000966009 -0.000857483 -0.00287626 -0.000966009 -0.00307972 0.000610677 -0.000966009 0.00107237 -0.0010972 -0.000966009 -0.00307972 -0.0010972 -0.0033142 -0.00287626 -0.00585902 -0.00307972 -0.0062988 -0.00585902 -0.00936403 -0.0062988 -0.0100644 -0.00307972 -0.0062988 -0.0033142 -0.00680502 -0.0062988 -0.0100644 -0.00680502 -0.0108667 0.00107237 -0.0010972 0.00163584 -0.00125458 -0.0010972 -0.0033142 -0.00125458 -0.00358903 0.00163584 -0.00125458 0.00230961 -0.00144156 -0.00125458 -0.00358903 -0.00144156 -0.00391217 -0.0033142 -0.00680502 -0.00358903 -0.00739668 -0.00680502 -0.0108667 -0.00739668 -0.0118002 -0.00358903 -0.00739668 -0.00391217 -0.00809014 -0.00739668 -0.0118002 -0.00809014 -0.0128897 -0.00936403 -0.0131363 -0.0100644 -0.0141161 -0.0131363 -0.0169687 -0.0141161 -0.0182276 -0.0100644 -0.0141161 -0.0108667 -0.0152354 -0.0141161 -0.0182276 -0.0152354 -0.0196623 -0.0169687 -0.0207161 -0.0182276 -0.0222435 -0.0207161 -0.0242763 -0.0222435 -0.0260557 -0.0182276 -0.0222435 -0.0196623 -0.0239811 -0.0222435 -0.0260557 -0.0239811 -0.0280769 -0.0108667 -0.0152354 -0.0118002 -0.0165327 -0.0152354 -0.0196623 -0.0165327 -0.0213197 -0.0118002 -0.0165327 -0.0128897 -0.0180408 -0.0165327 -0.0213197 -0.0180408 -0.0232386 -0.0196623 -0.0239811 -0.0213197 -0.0259824 -0.0239811 -0.0280769 -0.0259824 -0.0303987 -0.0213197 -0.0259824 -0.0232386 -0.0282909 -0.0259824 -0.0303987 -0.0282909 -0.0330672 0.00230961 -0.00144156 0.00310422 -0.00166206 -0.00144156 -0.00391217 -0.00166206 -0.00429207 0.00310422 -0.00166206 0.00403238 -0.0019209 -0.00166206 -0.00429207 -0.0019209 -0.00473915 -0.00391217 -0.00809014 -0.00429207 -0.00890253 -0.00809014 -0.0128897 -0.00890253 -0.0141608 -0.00429207 -0.00890253 -0.00473915 -0.00985456 -0.00890253 -0.0141608 -0.00985456 -0.0156436 0.00403238 -0.0019209 0.00510928 -0.00222437 -0.0019209 -0.00473915 -0.00222437 -0.00526735 0.00510928 -0.00222437 0.00635307 -0.00258085 -0.00222437 -0.00526735 -0.00258085 -0.00589585 -0.00473915 -0.00985456 -0.00526735 -0.0109733 -0.00985456 -0.0156436 -0.0109733 -0.017377 -0.00526735 -0.0109733 -0.00589585 -0.0122952 -0.0109733 -0.017377 -0.0122952 -0.0194123 -0.0128897 -0.0180408 -0.0141608 -0.0197923 -0.0180408 -0.0232386 -0.0197923 -0.0254573 -0.0141608 -0.0197923 -0.0156436 -0.0218254 -0.0197923 -0.0254573 -0.0218254 -0.0280189 -0.0232386 -0.0282909 -0.0254573 -0.0309478 -0.0282909 -0.0330672 -0.0309478 -0.0361251 -0.0254573 -0.0309478 -0.0280189 -0.0339984 -0.0309478 -0.0361251 -0.0339984 -0.039617 -0.0156436 -0.0218254 -0.017377 -0.0241877 -0.0218254 -0.0280189 -0.0241877 -0.0309759 -0.017377 -0.0241877 -0.0194123 -0.0269411 -0.0241877 -0.0309759 -0.0269411 -0.0343954 -0.0280189 -0.0339984 -0.0309759 -0.0374965 -0.0339984 -0.039617 -0.0374965 -0.0435946 -0.0309759 -0.0374965 -0.0343954 -0.0415089 -0.0374965 -0.0435946 -0.0415089 -0.04812 -0.0242763 -0.0275775 -0.0260557 -0.0295893 -0.0275775 -0.0305674 -0.0295893 -0.0327907 -0.0260557 -0.0295893 -0.0280769 -0.0318716 -0.0295893 -0.0327907 -0.0318716 -0.0353106 -0.0305674 -0.0332062 -0.0327907 -0.0356198 -0.0332062 -0.0354617 -0.0356198 -0.0380441 -0.0327907 -0.0356198 -0.0353106 -0.0383537 -0.0356198 -0.0380441 -0.0383537 -0.040969 -0.0280769 -0.0318716 -0.0303987 -0.0344872 -0.0318716 -0.0353106 -0.0344872 -0.0381928 -0.0303987 -0.0344872 -0.0330672 -0.0374837 -0.0344872 -0.0381928 -0.0374837 -0.0414853 -0.0353106 -0.0383537 -0.0381928 -0.0414759 -0.0383537 -0.040969 -0.0414759 -0.0443059 -0.0381928 -0.0414759 -0.0414853 -0.0450342 -0.0414759 -0.0443059 -0.0450342 -0.0481025 -0.0354617 -0.0373067 -0.0380441 -0.0400365 -0.0373067 -0.0387176 -0.0400365 -0.0415726 -0.0380441 -0.0400365 -0.040969 -0.0431295 -0.0400365 -0.0415726 -0.0431295 -0.0448109 -0.0387176 -0.0396738 -0.0415726 -0.0426309 -0.0396738 -0.0401572 -0.0426309 -0.0431914 -0.0415726 -0.0426309 -0.0448109 -0.0459907 -0.0426309 -0.0431914 -0.0459907 -0.0466471 -0.040969 -0.0431295 -0.0443059 -0.046657 -0.0431295 -0.0448109 -0.046657 -0.0485056 -0.0443059 -0.046657 -0.0481025 -0.0506668 -0.046657 -0.0485056 -0.0506668 -0.0527052 -0.0448109 -0.0459907 -0.0485056 -0.0498287 -0.0459907 -0.0466471 -0.0498287 -0.0506026 -0.0485056 -0.0498287 -0.0527052 -0.0541952 -0.0498287 -0.0506026 -0.0541952 -0.0551117 -0.0330672 -0.0374837 -0.0361251 -0.0409031 -0.0374837 -0.0414853 -0.0409031 -0.0452284 -0.0361251 -0.0409031 -0.039617 -0.0447877 -0.0409031 -0.0452284 -0.0447877 -0.0494608 -0.0414853 -0.0450342 -0.0452284 -0.0490668 -0.0450342 -0.0481025 -0.0490668 -0.0523948 -0.0452284 -0.0490668 -0.0494608 -0.053608 -0.0490668 -0.0523948 -0.053608 -0.0572127 -0.039617 -0.0447877 -0.0435946 -0.0491846 -0.0447877 -0.0494608 -0.0491846 -0.054223 -0.0435946 -0.0491846 -0.04812 -0.0541476 -0.0491846 -0.054223 -0.0541476 -0.0595589 -0.0494608 -0.053608 -0.054223 -0.0586911 -0.053608 -0.0572127 -0.0586911 -0.0625827 -0.054223 -0.0586911 -0.0595589 -0.0643492 -0.0586911 -0.0625827 -0.0643492 -0.0685271 -0.0481025 -0.0506668 -0.0523948 -0.0551932 -0.0506668 -0.0527052 -0.0551932 -0.0574437 -0.0523948 -0.0551932 -0.0572127 -0.0602628 -0.0551932 -0.0574437 -0.0602628 -0.0627457 -0.0527052 -0.0541952 -0.0574437 -0.0591254 -0.0541952 -0.0551117 -0.0591254 -0.060213 -0.0574437 -0.0591254 -0.0627457 -0.0646444 -0.0591254 -0.060213 -0.0646444 -0.0659346 -0.0572127 -0.0602628 -0.0625827 -0.0658959 -0.0602628 -0.0627457 -0.0658959 -0.0686274 -0.0625827 -0.0658959 -0.0685271 -0.0721056 -0.0658959 -0.0686274 -0.0721056 -0.0750945 -0.0627457 -0.0646444 -0.0686274 -0.0707669 -0.0646444 -0.0659346 -0.0707669 -0.0722937 -0.0686274 -0.0707669 -0.0750945 -0.0774946 -0.0707669 -0.0722937 -0.0774946 -0.0792923 -0.000106312 -0.000107041 -0.010654 -0.0106429 -0.000107041 -0.000106033 -0.0106429 -0.0104878 -0.010654 -0.0106429 -0.0186439 -0.0186126 -0.0106429 -0.0104878 -0.0186126 -0.0183338 -0.000106033 -0.000103218 -0.0104878 -0.0101876 -0.000103218 -9.8548e-05 -0.0101876 -0.00974302 -0.0104878 -0.0101876 -0.0183338 -0.0178063 -0.0101876 -0.00974302 -0.0178063 -0.0170324 -0.0186439 -0.0186126 -0.0244845 -0.0244333 -0.0186126 -0.0183338 -0.0244333 -0.0240618 -0.0244845 -0.0244333 -0.0287656 -0.028701 -0.0244333 -0.0240618 -0.028701 -0.0282647 -0.0183338 -0.0178063 -0.0240618 -0.0233692 -0.0178063 -0.0170324 -0.0233692 -0.0223589 -0.0240618 -0.0233692 -0.0282647 -0.0274558 -0.0233692 -0.0223589 -0.0274558 -0.0262783 -9.8548e-05 -9.20001e-05 -0.00974302 -0.00915723 -9.20001e-05 -8.35776e-05 -0.00915723 -0.00843584 -0.00974302 -0.00915723 -0.0170324 -0.0160179 -0.00915723 -0.00843584 -0.0160179 -0.0147734 -8.35776e-05 -7.33095e-05 -0.00843584 -0.00758781 -7.33095e-05 -6.12607e-05 -0.00758781 -0.00662659 -0.00843584 -0.00758781 -0.0147734 -0.0133154 -0.00758781 -0.00662659 -0.0133154 -0.0116678 -0.0170324 -0.0160179 -0.0223589 -0.021039 -0.0160179 -0.0147734 -0.021039 -0.0194239 -0.0223589 -0.021039 -0.0262783 -0.0247418 -0.021039 -0.0194239 -0.0247418 -0.0228629 -0.0147734 -0.0133154 -0.0194239 -0.0175353 -0.0133154 -0.0116678 -0.0175353 -0.0154047 -0.0194239 -0.0175353 -0.0228629 -0.0206666 -0.0175353 -0.0154047 -0.0206666 -0.0181894 -0.0287656 -0.028701 -0.0320496 -0.0319816 -0.028701 -0.0282647 -0.0319816 -0.0315036 -0.0320496 -0.0319816 -0.0348121 -0.0347523 -0.0319816 -0.0315036 -0.0347523 -0.034251 -0.0282647 -0.0274558 -0.0315036 -0.030614 -0.0274558 -0.0262783 -0.030614 -0.0293167 -0.0315036 -0.030614 -0.034251 -0.0333053 -0.030614 -0.0293167 -0.0333053 -0.0319179 -0.0348121 -0.0347523 -0.037425 -0.0373861 -0.0347523 -0.034251 -0.0373861 -0.0368764 -0.037425 -0.0373861 -0.0401572 -0.0401526 -0.0373861 -0.0368764 -0.0401526 -0.0396477 -0.034251 -0.0333053 -0.0368764 -0.035891 -0.0333053 -0.0319179 -0.035891 -0.0344304 -0.0368764 -0.035891 -0.0396477 -0.0386344 -0.035891 -0.0344304 -0.0386344 -0.0371097 -0.0262783 -0.0247418 -0.0293167 -0.0276215 -0.0247418 -0.0228629 -0.0276215 -0.025546 -0.0293167 -0.0276215 -0.0319179 -0.0300977 -0.0276215 -0.025546 -0.0300977 -0.0278621 -0.0228629 -0.0206666 -0.025546 -0.023117 -0.0206666 -0.0181894 -0.023117 -0.0203739 -0.025546 -0.023117 -0.0278621 -0.0252386 -0.023117 -0.0203739 -0.0252386 -0.0222681 -0.0319179 -0.0300977 -0.0344304 -0.0325015 -0.0300977 -0.0278621 -0.0325015 -0.0301202 -0.0344304 -0.0325015 -0.0371097 -0.0350774 -0.0325015 -0.0301202 -0.0350774 -0.0325507 -0.0278621 -0.0252386 -0.0301202 -0.0273136 -0.0252386 -0.0222681 -0.0273136 -0.024124 -0.0301202 -0.0273136 -0.0325507 -0.0295552 -0.0273136 -0.024124 -0.0295552 -0.0261337 -6.12607e-05 -4.75351e-05 -0.00662659 -0.00557232 -4.75351e-05 -3.24446e-05 -0.00557232 -0.00445451 -0.00662659 -0.00557232 -0.0116678 -0.00986623 -0.00557232 -0.00445451 -0.00986623 -0.00796124 -3.24446e-05 -1.61317e-05 -0.00445451 -0.0033195 -1.61317e-05 -1.34161e-06 -0.0033195 -0.00221815 -0.00445451 -0.0033195 -0.00796124 -0.00602789 -0.0033195 -0.00221815 -0.00602789 -0.00415193 -0.0116678 -0.00986623 -0.0154047 -0.0130779 -0.00986623 -0.00796124 -0.0130779 -0.0106188 -0.0154047 -0.0130779 -0.0181894 -0.0154832 -0.0130779 -0.0106188 -0.0154832 -0.0126203 -0.00796124 -0.00602789 -0.0106188 -0.00811894 -0.00602789 -0.00415193 -0.00811894 -0.00568398 -0.0106188 -0.00811894 -0.0126203 -0.00970213 -0.00811894 -0.00568398 -0.00970213 -0.00684694 -1.34161e-06 1.22617e-05 -0.00221815 -0.00129818 1.22617e-05 5.84073e-05 -0.00129818 -0.000288187 -0.00221815 -0.00129818 -0.00415193 -0.00253314 -0.00129818 -0.000288187 -0.00253314 -0.000903195 5.84073e-05 -1.74486e-05 -0.000288187 -0.00120313 -1.74486e-05 0.00952839 -0.00120313 0.00846782 -0.000288187 -0.00120313 -0.000903195 -0.0014446 -0.00120313 0.00846782 -0.0014446 0.00883791 -0.00415193 -0.00253314 -0.00568398 -0.00353668 -0.00253314 -0.000903195 -0.00353668 -0.00143339 -0.00568398 -0.00353668 -0.00684694 -0.00429372 -0.00353668 -0.00143339 -0.00429372 -0.00182709 -0.000903195 -0.0014446 -0.00143339 -0.00162318 -0.0014446 0.00883791 -0.00162318 0.00869767 -0.00143339 -0.00162318 -0.00182709 -0.00173399 -0.00162318 0.00869767 -0.00173399 0.00863257 -0.0181894 -0.0154832 -0.0203739 -0.0173728 -0.0154832 -0.0126203 -0.0173728 -0.0141916 -0.0203739 -0.0173728 -0.0222681 -0.0190102 -0.0173728 -0.0141916 -0.0190102 -0.0155481 -0.0126203 -0.00970213 -0.0141916 -0.0109397 -0.00970213 -0.00684694 -0.0109397 -0.00774632 -0.0141916 -0.0109397 -0.0155481 -0.0119994 -0.0109397 -0.00774632 -0.0119994 -0.00850546 -0.0222681 -0.0190102 -0.024124 -0.0206138 -0.0190102 -0.0155481 -0.0206138 -0.0168723 -0.024124 -0.0206138 -0.0261337 -0.0223522 -0.0206138 -0.0168723 -0.0223522 -0.0183074 -0.0155481 -0.0119994 -0.0168723 -0.0130273 -0.0119994 -0.00850546 -0.0130273 -0.00923473 -0.0168723 -0.0130273 -0.0183074 -0.0141392 -0.0130273 -0.00923473 -0.0141392 -0.0100212 -0.00684694 -0.00429372 -0.00774632 -0.00486729 -0.00429372 -0.00182709 -0.00486729 -0.00211209 -0.00774632 -0.00486729 -0.00850546 -0.00534163 -0.00486729 -0.00211209 -0.00534163 -0.00233874 -0.00182709 -0.00173399 -0.00211209 -0.00181612 -0.00173399 0.00863257 -0.00181612 0.00865043 -0.00211209 -0.00181612 -0.00233874 -0.00189127 -0.00181612 0.00865043 -0.00189127 0.00874386 -0.00850546 -0.00534163 -0.00923473 -0.00579217 -0.00534163 -0.00233874 -0.00579217 -0.00254862 -0.00923473 -0.00579217 -0.0100212 -0.00627721 -0.00579217 -0.00254862 -0.00627721 -0.00277255 -0.00233874 -0.00189127 -0.00254862 -0.00197216 -0.00189127 0.00874386 -0.00197216 0.00891576 -0.00254862 -0.00197216 -0.00277255 -0.00206839 -0.00197216 0.00891576 -0.00206839 0.00916621 -0.0401572 -0.0401526 -0.0431914 -0.0432361 -0.0401526 -0.0396477 -0.0432361 -0.0427493 -0.0431914 -0.0432361 -0.0466471 -0.0467588 -0.0432361 -0.0427493 -0.0467588 -0.0463058 -0.0396477 -0.0386344 -0.0427493 -0.0417185 -0.0386344 -0.0371097 -0.0417185 -0.0401359 -0.0427493 -0.0417185 -0.0463058 -0.0452698 -0.0417185 -0.0401359 -0.0452698 -0.0436366 -0.0466471 -0.0467588 -0.0506026 -0.0508027 -0.0467588 -0.0463058 -0.0508027 -0.0504036 -0.0506026 -0.0508027 -0.0551117 -0.0554265 -0.0508027 -0.0504036 -0.0554265 -0.0551078 -0.0463058 -0.0452698 -0.0504036 -0.0493798 -0.0452698 -0.0436366 -0.0493798 -0.0477081 -0.0504036 -0.0493798 -0.0551078 -0.0541214 -0.0493798 -0.0477081 -0.0541214 -0.0524326 -0.0371097 -0.0350774 -0.0401359 -0.0380005 -0.0350774 -0.0325507 -0.0380005 -0.035321 -0.0401359 -0.0380005 -0.0436366 -0.041398 -0.0380005 -0.035321 -0.041398 -0.0385566 -0.0325507 -0.0295552 -0.035321 -0.0321205 -0.0295552 -0.0261337 -0.0321205 -0.0284415 -0.035321 -0.0321205 -0.0385566 -0.0351306 -0.0321205 -0.0284415 -0.0351306 -0.0311612 -0.0436366 -0.041398 -0.0477081 -0.045371 -0.041398 -0.0385566 -0.045371 -0.0423614 -0.0477081 -0.045371 -0.0524326 -0.0500104 -0.045371 -0.0423614 -0.0500104 -0.0468341 -0.0385566 -0.0351306 -0.0423614 -0.0386898 -0.0351306 -0.0311612 -0.0386898 -0.0343939 -0.0423614 -0.0386898 -0.0468341 -0.0429022 -0.0386898 -0.0343939 -0.0429022 -0.0382448 -0.0551117 -0.0554265 -0.060213 -0.0606746 -0.0554265 -0.0551078 -0.0606746 -0.0604718 -0.060213 -0.0606746 -0.0659346 -0.0665821 -0.0606746 -0.0604718 -0.0665821 -0.066541 -0.0551078 -0.0541214 -0.0604718 -0.0595593 -0.0541214 -0.0524326 -0.0595593 -0.0578879 -0.0604718 -0.0595593 -0.066541 -0.0657537 -0.0595593 -0.0578879 -0.0657537 -0.0641526 -0.0659346 -0.0665821 -0.0722937 -0.0731728 -0.0665821 -0.066541 -0.0731728 -0.0733518 -0.0722937 -0.0731728 -0.0792923 -0.0804548 -0.0731728 -0.0733518 -0.0804548 -0.080925 -0.066541 -0.0657537 -0.0733518 -0.0727592 -0.0657537 -0.0641526 -0.0727592 -0.0713058 -0.0733518 -0.0727592 -0.080925 -0.0806183 -0.0727592 -0.0713058 -0.0806183 -0.0794207 -0.0524326 -0.0500104 -0.0578879 -0.0554086 -0.0500104 -0.0468341 -0.0554086 -0.052081 -0.0578879 -0.0554086 -0.0641526 -0.0616651 -0.0554086 -0.052081 -0.0616651 -0.0582231 -0.0468341 -0.0429022 -0.052081 -0.0478849 -0.0429022 -0.0382448 -0.0478849 -0.0428369 -0.052081 -0.0478849 -0.0582231 -0.0537783 -0.0478849 -0.0428369 -0.0537783 -0.0483239 -0.0641526 -0.0616651 -0.0713058 -0.0688886 -0.0616651 -0.0582231 -0.0688886 -0.0654015 -0.0713058 -0.0688886 -0.07942