# vtk DataFile Version 3.0
#This file was generated by the deal.II library on 2026/1/5 at 14:19:35
ASCII
DATASET UNSTRUCTURED_GRID

POINTS 4096 double
0 0 0
0.03125 0 0
0 0.03125 0
0.03125 0.03125 0
0.03125 0 0
0.0625 0 0
0.03125 0.03125 0
0.0625 0.03125 0
0 0.03125 0
0.03125 0.03125 0
0 0.0625 0
0.03125 0.0625 0
0.03125 0.03125 0
0.0625 0.03125 0
0.03125 0.0625 0
0.0625 0.0625 0
0.0625 0 0
0.09375 0 0
0.0625 0.03125 0
0.09375 0.03125 0
0.09375 0 0
0.125 0 0
0.09375 0.03125 0
0.125 0.03125 0
0.0625 0.03125 0
0.09375 0.03125 0
0.0625 0.0625 0
0.09375 0.0625 0
0.09375 0.03125 0
0.125 0.03125 0
0.09375 0.0625 0
0.125 0.0625 0
0 0.0625 0
0.03125 0.0625 0
0 0.09375 0
0.03125 0.09375 0
0.03125 0.0625 0
0.0625 0.0625 0
0.03125 0.09375 0
0.0625 0.09375 0
0 0.09375 0
0.03125 0.09375 0
0 0.125 0
0.03125 0.125 0
0.03125 0.09375 0
0.0625 0.09375 0
0.03125 0.125 0
0.0625 0.125 0
0.0625 0.0625 0
0.09375 0.0625 0
0.0625 0.09375 0
0.09375 0.09375 0
0.09375 0.0625 0
0.125 0.0625 0
0.09375 0.09375 0
0.125 0.09375 0
0.0625 0.09375 0
0.09375 0.09375 0
0.0625 0.125 0
0.09375 0.125 0
0.09375 0.09375 0
0.125 0.09375 0
0.09375 0.125 0
0.125 0.125 0
0.125 0 0
0.15625 0 0
0.125 0.03125 0
0.15625 0.03125 0
0.15625 0 0
0.1875 0 0
0.15625 0.03125 0
0.1875 0.03125 0
0.125 0.03125 0
0.15625 0.03125 0
0.125 0.0625 0
0.15625 0.0625 0
0.15625 0.03125 0
0.1875 0.03125 0
0.15625 0.0625 0
0.1875 0.0625 0
0.1875 0 0
0.21875 0 0
0.1875 0.03125 0
0.21875 0.03125 0
0.21875 0 0
0.25 0 0
0.21875 0.03125 0
0.25 0.03125 0
0.1875 0.03125 0
0.21875 0.03125 0
0.1875 0.0625 0
0.21875 0.0625 0
0.21875 0.03125 0
0.25 0.03125 0
0.21875 0.0625 0
0.25 0.0625 0
0.125 0.0625 0
0.15625 0.0625 0
0.125 0.09375 0
0.15625 0.09375 0
0.15625 0.0625 0
0.1875 0.0625 0
0.15625 0.09375 0
0.1875 0.09375 0
0.125 0.09375 0
0.15625 0.09375 0
0.125 0.125 0
0.15625 0.125 0
0.15625 0.09375 0
0.1875 0.09375 0
0.15625 0.125 0
0.1875 0.125 0
0.1875 0.0625 0
0.21875 0.0625 0
0.1875 0.09375 0
0.21875 0.09375 0
0.21875 0.0625 0
0.25 0.0625 0
0.21875 0.09375 0
0.25 0.09375 0
0.1875 0.09375 0
0.21875 0.09375 0
0.1875 0.125 0
0.21875 0.125 0
0.21875 0.09375 0
0.25 0.09375 0
0.21875 0.125 0
0.25 0.125 0
0 0.125 0
0.03125 0.125 0
0 0.15625 0
0.03125 0.15625 0
0.03125 0.125 0
0.0625 0.125 0
0.03125 0.15625 0
0.0625 0.15625 0
0 0.15625 0
0.03125 0.15625 0
0 0.1875 0
0.03125 0.1875 0
0.03125 0.15625 0
0.0625 0.15625 0
0.03125 0.1875 0
0.0625 0.1875 0
0.0625 0.125 0
0.09375 0.125 0
0.0625 0.15625 0
0.09375 0.15625 0
0.09375 0.125 0
0.125 0.125 0
0.09375 0.15625 0
0.125 0.15625 0
0.0625 0.15625 0
0.09375 0.15625 0
0.0625 0.1875 0
0.09375 0.1875 0
0.09375 0.15625 0
0.125 0.15625 0
0.09375 0.1875 0
0.125 0.1875 0
0 0.1875 0
0.03125 0.1875 0
0 0.21875 0
0.03125 0.21875 0
0.03125 0.1875 0
0.0625 0.1875 0
0.03125 0.21875 0
0.0625 0.21875 0
0 0.21875 0
0.03125 0.21875 0
0 0.25 0
0.03125 0.25 0
0.03125 0.21875 0
0.0625 0.21875 0
0.03125 0.25 0
0.0625 0.25 0
0.0625 0.1875 0
0.09375 0.1875 0
0.0625 0.21875 0
0.09375 0.21875 0
0.09375 0.1875 0
0.125 0.1875 0
0.09375 0.21875 0
0.125 0.21875 0
0.0625 0.21875 0
0.09375 0.21875 0
0.0625 0.25 0
0.09375 0.25 0
0.09375 0.21875 0
0.125 0.21875 0
0.09375 0.25 0
0.125 0.25 0
0.125 0.125 0
0.15625 0.125 0
0.125 0.15625 0
0.15625 0.15625 0
0.15625 0.125 0
0.1875 0.125 0
0.15625 0.15625 0
0.1875 0.15625 0
0.125 0.15625 0
0.15625 0.15625 0
0.125 0.1875 0
0.15625 0.1875 0
0.15625 0.15625 0
0.1875 0.15625 0
0.15625 0.1875 0
0.1875 0.1875 0
0.1875 0.125 0
0.21875 0.125 0
0.1875 0.15625 0
0.21875 0.15625 0
0.21875 0.125 0
0.25 0.125 0
0.21875 0.15625 0
0.25 0.15625 0
0.1875 0.15625 0
0.21875 0.15625 0
0.1875 0.1875 0
0.21875 0.1875 0
0.21875 0.15625 0
0.25 0.15625 0
0.21875 0.1875 0
0.25 0.1875 0
0.125 0.1875 0
0.15625 0.1875 0
0.125 0.21875 0
0.15625 0.21875 0
0.15625 0.1875 0
0.1875 0.1875 0
0.15625 0.21875 0
0.1875 0.21875 0
0.125 0.21875 0
0.15625 0.21875 0
0.125 0.25 0
0.15625 0.25 0
0.15625 0.21875 0
0.1875 0.21875 0
0.15625 0.25 0
0.1875 0.25 0
0.1875 0.1875 0
0.21875 0.1875 0
0.1875 0.21875 0
0.21875 0.21875 0
0.21875 0.1875 0
0.25 0.1875 0
0.21875 0.21875 0
0.25 0.21875 0
0.1875 0.21875 0
0.21875 0.21875 0
0.1875 0.25 0
0.21875 0.25 0
0.21875 0.21875 0
0.25 0.21875 0
0.21875 0.25 0
0.25 0.25 0
0.25 0 0
0.28125 0 0
0.25 0.03125 0
0.28125 0.03125 0
0.28125 0 0
0.3125 0 0
0.28125 0.03125 0
0.3125 0.03125 0
0.25 0.03125 0
0.28125 0.03125 0
0.25 0.0625 0
0.28125 0.0625 0
0.28125 0.03125 0
0.3125 0.03125 0
0.28125 0.0625 0
0.3125 0.0625 0
0.3125 0 0
0.34375 0 0
0.3125 0.03125 0
0.34375 0.03125 0
0.34375 0 0
0.375 0 0
0.34375 0.03125 0
0.375 0.03125 0
0.3125 0.03125 0
0.34375 0.03125 0
0.3125 0.0625 0
0.34375 0.0625 0
0.34375 0.03125 0
0.375 0.03125 0
0.34375 0.0625 0
0.375 0.0625 0
0.25 0.0625 0
0.28125 0.0625 0
0.25 0.09375 0
0.28125 0.09375 0
0.28125 0.0625 0
0.3125 0.0625 0
0.28125 0.09375 0
0.3125 0.09375 0
0.25 0.09375 0
0.28125 0.09375 0
0.25 0.125 0
0.28125 0.125 0
0.28125 0.09375 0
0.3125 0.09375 0
0.28125 0.125 0
0.3125 0.125 0
0.3125 0.0625 0
0.34375 0.0625 0
0.3125 0.09375 0
0.34375 0.09375 0
0.34375 0.0625 0
0.375 0.0625 0
0.34375 0.09375 0
0.375 0.09375 0
0.3125 0.09375 0
0.34375 0.09375 0
0.3125 0.125 0
0.34375 0.125 0
0.34375 0.09375 0
0.375 0.09375 0
0.34375 0.125 0
0.375 0.125 0
0.375 0 0
0.40625 0 0
0.375 0.03125 0
0.40625 0.03125 0
0.40625 0 0
0.4375 0 0
0.40625 0.03125 0
0.4375 0.03125 0
0.375 0.03125 0
0.40625 0.03125 0
0.375 0.0625 0
0.40625 0.0625 0
0.40625 0.03125 0
0.4375 0.03125 0
0.40625 0.0625 0
0.4375 0.0625 0
0.4375 0 0
0.46875 0 0
0.4375 0.03125 0
0.46875 0.03125 0
0.46875 0 0
0.5 0 0
0.46875 0.03125 0
0.5 0.03125 0
0.4375 0.03125 0
0.46875 0.03125 0
0.4375 0.0625 0
0.46875 0.0625 0
0.46875 0.03125 0
0.5 0.03125 0
0.46875 0.0625 0
0.5 0.0625 0
0.375 0.0625 0
0.40625 0.0625 0
0.375 0.09375 0
0.40625 0.09375 0
0.40625 0.0625 0
0.4375 0.0625 0
0.40625 0.09375 0
0.4375 0.09375 0
0.375 0.09375 0
0.40625 0.09375 0
0.375 0.125 0
0.40625 0.125 0
0.40625 0.09375 0
0.4375 0.09375 0
0.40625 0.125 0
0.4375 0.125 0
0.4375 0.0625 0
0.46875 0.0625 0
0.4375 0.09375 0
0.46875 0.09375 0
0.46875 0.0625 0
0.5 0.0625 0
0.46875 0.09375 0
0.5 0.09375 0
0.4375 0.09375 0
0.46875 0.09375 0
0.4375 0.125 0
0.46875 0.125 0
0.46875 0.09375 0
0.5 0.09375 0
0.46875 0.125 0
0.5 0.125 0
0.25 0.125 0
0.28125 0.125 0
0.25 0.15625 0
0.28125 0.15625 0
0.28125 0.125 0
0.3125 0.125 0
0.28125 0.15625 0
0.3125 0.15625 0
0.25 0.15625 0
0.28125 0.15625 0
0.25 0.1875 0
0.28125 0.1875 0
0.28125 0.15625 0
0.3125 0.15625 0
0.28125 0.1875 0
0.3125 0.1875 0
0.3125 0.125 0
0.34375 0.125 0
0.3125 0.15625 0
0.34375 0.15625 0
0.34375 0.125 0
0.375 0.125 0
0.34375 0.15625 0
0.375 0.15625 0
0.3125 0.15625 0
0.34375 0.15625 0
0.3125 0.1875 0
0.34375 0.1875 0
0.34375 0.15625 0
0.375 0.15625 0
0.34375 0.1875 0
0.375 0.1875 0
0.25 0.1875 0
0.28125 0.1875 0
0.25 0.21875 0
0.28125 0.21875 0
0.28125 0.1875 0
0.3125 0.1875 0
0.28125 0.21875 0
0.3125 0.21875 0
0.25 0.21875 0
0.28125 0.21875 0
0.25 0.25 0
0.28125 0.25 0
0.28125 0.21875 0
0.3125 0.21875 0
0.28125 0.25 0
0.3125 0.25 0
0.3125 0.1875 0
0.34375 0.1875 0
0.3125 0.21875 0
0.34375 0.21875 0
0.34375 0.1875 0
0.375 0.1875 0
0.34375 0.21875 0
0.375 0.21875 0
0.3125 0.21875 0
0.34375 0.21875 0
0.3125 0.25 0
0.34375 0.25 0
0.34375 0.21875 0
0.375 0.21875 0
0.34375 0.25 0
0.375 0.25 0
0.375 0.125 0
0.40625 0.125 0
0.375 0.15625 0
0.40625 0.15625 0
0.40625 0.125 0
0.4375 0.125 0
0.40625 0.15625 0
0.4375 0.15625 0
0.375 0.15625 0
0.40625 0.15625 0
0.375 0.1875 0
0.40625 0.1875 0
0.40625 0.15625 0
0.4375 0.15625 0
0.40625 0.1875 0
0.4375 0.1875 0
0.4375 0.125 0
0.46875 0.125 0
0.4375 0.15625 0
0.46875 0.15625 0
0.46875 0.125 0
0.5 0.125 0
0.46875 0.15625 0
0.5 0.15625 0
0.4375 0.15625 0
0.46875 0.15625 0
0.4375 0.1875 0
0.46875 0.1875 0
0.46875 0.15625 0
0.5 0.15625 0
0.46875 0.1875 0
0.5 0.1875 0
0.375 0.1875 0
0.40625 0.1875 0
0.375 0.21875 0
0.40625 0.21875 0
0.40625 0.1875 0
0.4375 0.1875 0
0.40625 0.21875 0
0.4375 0.21875 0
0.375 0.21875 0
0.40625 0.21875 0
0.375 0.25 0
0.40625 0.25 0
0.40625 0.21875 0
0.4375 0.21875 0
0.40625 0.25 0
0.4375 0.25 0
0.4375 0.1875 0
0.46875 0.1875 0
0.4375 0.21875 0
0.46875 0.21875 0
0.46875 0.1875 0
0.5 0.1875 0
0.46875 0.21875 0
0.5 0.21875 0
0.4375 0.21875 0
0.46875 0.21875 0
0.4375 0.25 0
0.46875 0.25 0
0.46875 0.21875 0
0.5 0.21875 0
0.46875 0.25 0
0.5 0.25 0
0 0.25 0
0.03125 0.25 0
0 0.28125 0
0.03125 0.28125 0
0.03125 0.25 0
0.0625 0.25 0
0.03125 0.28125 0
0.0625 0.28125 0
0 0.28125 0
0.03125 0.28125 0
0 0.3125 0
0.03125 0.3125 0
0.03125 0.28125 0
0.0625 0.28125 0
0.03125 0.3125 0
0.0625 0.3125 0
0.0625 0.25 0
0.09375 0.25 0
0.0625 0.28125 0
0.09375 0.28125 0
0.09375 0.25 0
0.125 0.25 0
0.09375 0.28125 0
0.125 0.28125 0
0.0625 0.28125 0
0.09375 0.28125 0
0.0625 0.3125 0
0.09375 0.3125 0
0.09375 0.28125 0
0.125 0.28125 0
0.09375 0.3125 0
0.125 0.3125 0
0 0.3125 0
0.03125 0.3125 0
0 0.34375 0
0.03125 0.34375 0
0.03125 0.3125 0
0.0625 0.3125 0
0.03125 0.34375 0
0.0625 0.34375 0
0 0.34375 0
0.03125 0.34375 0
0 0.375 0
0.03125 0.375 0
0.03125 0.34375 0
0.0625 0.34375 0
0.03125 0.375 0
0.0625 0.375 0
0.0625 0.3125 0
0.09375 0.3125 0
0.0625 0.34375 0
0.09375 0.34375 0
0.09375 0.3125 0
0.125 0.3125 0
0.09375 0.34375 0
0.125 0.34375 0
0.0625 0.34375 0
0.09375 0.34375 0
0.0625 0.375 0
0.09375 0.375 0
0.09375 0.34375 0
0.125 0.34375 0
0.09375 0.375 0
0.125 0.375 0
0.125 0.25 0
0.15625 0.25 0
0.125 0.28125 0
0.15625 0.28125 0
0.15625 0.25 0
0.1875 0.25 0
0.15625 0.28125 0
0.1875 0.28125 0
0.125 0.28125 0
0.15625 0.28125 0
0.125 0.3125 0
0.15625 0.3125 0
0.15625 0.28125 0
0.1875 0.28125 0
0.15625 0.3125 0
0.1875 0.3125 0
0.1875 0.25 0
0.21875 0.25 0
0.1875 0.28125 0
0.21875 0.28125 0
0.21875 0.25 0
0.25 0.25 0
0.21875 0.28125 0
0.25 0.28125 0
0.1875 0.28125 0
0.21875 0.28125 0
0.1875 0.3125 0
0.21875 0.3125 0
0.21875 0.28125 0
0.25 0.28125 0
0.21875 0.3125 0
0.25 0.3125 0
0.125 0.3125 0
0.15625 0.3125 0
0.125 0.34375 0
0.15625 0.34375 0
0.15625 0.3125 0
0.1875 0.3125 0
0.15625 0.34375 0
0.1875 0.34375 0
0.125 0.34375 0
[...]
POINT_DATA 4096
SCALARS u_x double 1
LOOKUP_TABLE default
2.21845e-05 1.52313e-05 -2.23853e-05 -6.31185e-05 1.52313e-05 2.18937e-05 -6.31185e-05 -0.00041742 -2.23853e-05 -6.31185e-05 -0.000145307 -0.000234355 -6.31185e-05 -0.00041742 -0.000234355 -0.00101228 2.18937e-05 1.77837e-05 -0.00041742 -0.0010569 1.77837e-05 7.63828e-06 -0.0010569 -0.00192844 -0.00041742 -0.0010569 -0.00101228 -0.00221659 -0.0010569 -0.00192844 -0.00221659 -0.00377612 -0.000145307 -0.000234355 -0.000271205 -0.000389468 -0.000234355 -0.00101228 -0.000389468 -0.00155951 -0.000271205 -0.000389468 -0.000353383 -0.000511013 -0.000389468 -0.00155951 -0.000511013 -0.00199978 -0.00101228 -0.00221659 -0.00155951 -0.00325291 -0.00221659 -0.00377612 -0.00325291 -0.0053726 -0.00155951 -0.00325291 -0.00199978 -0.00409995 -0.00325291 -0.0053726 -0.00409995 -0.00667771 7.63828e-06 -4.87154e-06 -0.00192844 -0.00294505 -4.87154e-06 -1.78343e-05 -0.00294505 -0.00403156 -0.00192844 -0.00294505 -0.00377612 -0.00556157 -0.00294505 -0.00403156 -0.00556157 -0.00745941 -1.78343e-05 -3.03904e-05 -0.00403156 -0.00512934 -3.03904e-05 -4.21744e-05 -0.00512934 -0.00619575 -0.00403156 -0.00512934 -0.00745941 -0.00937539 -0.00512934 -0.00619575 -0.00937539 -0.0112376 -0.00377612 -0.00556157 -0.0053726 -0.00775707 -0.00556157 -0.00745941 -0.00775707 -0.0102713 -0.0053726 -0.00775707 -0.00667771 -0.00954051 -0.00775707 -0.0102713 -0.00954051 -0.0125362 -0.00745941 -0.00937539 -0.0102713 -0.0128007 -0.00937539 -0.0112376 -0.0128007 -0.0152555 -0.0102713 -0.0128007 -0.0125362 -0.0155371 -0.0128007 -0.0152555 -0.0155371 -0.0184426 -0.000353383 -0.000511013 -0.000369806 -0.000607627 -0.000511013 -0.00199978 -0.000607627 -0.00234083 -0.000369806 -0.000607627 -0.000310325 -0.000692163 -0.000607627 -0.00234083 -0.000692163 -0.00261188 -0.00199978 -0.00409995 -0.00234083 -0.00477484 -0.00409995 -0.00667771 -0.00477484 -0.00773062 -0.00234083 -0.00477484 -0.00261188 -0.00532773 -0.00477484 -0.00773062 -0.00532773 -0.00860607 -0.000310325 -0.000692163 -0.000169856 -0.000776009 -0.000692163 -0.00261188 -0.000776009 -0.00284426 -0.000169856 -0.000776009 5.4925e-05 -0.000868206 -0.000776009 -0.00284426 -0.000868206 -0.00306505 -0.00261188 -0.00532773 -0.00284426 -0.00581463 -0.00532773 -0.00860607 -0.00581463 -0.00938587 -0.00284426 -0.00581463 -0.00306505 -0.00628569 -0.00581463 -0.00938587 -0.00628569 -0.0101441 -0.00667771 -0.00954051 -0.00773062 -0.010987 -0.00954051 -0.0125362 -0.010987 -0.0143747 -0.00773062 -0.010987 -0.00860607 -0.0122018 -0.010987 -0.0143747 -0.0122018 -0.0159276 -0.0125362 -0.0155371 -0.0143747 -0.017755 -0.0155371 -0.0184426 -0.017755 -0.0210198 -0.0143747 -0.017755 -0.0159276 -0.0196341 -0.017755 -0.0210198 -0.0196341 -0.0232065 -0.00860607 -0.0122018 -0.00938587 -0.0132944 -0.0122018 -0.0159276 -0.0132944 -0.0173337 -0.00938587 -0.0132944 -0.0101441 -0.0143628 -0.0132944 -0.0173337 -0.0143628 -0.0187153 -0.0159276 -0.0196341 -0.0173337 -0.0213437 -0.0196341 -0.0232065 -0.0213437 -0.0252027 -0.0173337 -0.0213437 -0.0187153 -0.0230298 -0.0213437 -0.0252027 -0.0230298 -0.0271778 -4.21744e-05 -5.30567e-05 -0.00619575 -0.0072005 -5.30567e-05 -6.29929e-05 -0.0072005 -0.00812182 -0.00619575 -0.0072005 -0.0112376 -0.012993 -0.0072005 -0.00812182 -0.012993 -0.014602 -6.29929e-05 -7.1947e-05 -0.00812182 -0.00894331 -7.1947e-05 -7.98586e-05 -0.00894331 -0.00965183 -0.00812182 -0.00894331 -0.014602 -0.016035 -0.00894331 -0.00965183 -0.016035 -0.0172679 -0.0112376 -0.012993 -0.0152555 -0.0175676 -0.012993 -0.014602 -0.0175676 -0.0196854 -0.0152555 -0.0175676 -0.0184426 -0.0211753 -0.0175676 -0.0196854 -0.0211753 -0.0236757 -0.014602 -0.016035 -0.0196854 -0.021569 -0.016035 -0.0172679 -0.021569 -0.0231868 -0.0196854 -0.021569 -0.0236757 -0.0258975 -0.021569 -0.0231868 -0.0258975 -0.0278037 -7.98586e-05 -8.6641e-05 -0.00965183 -0.0102362 -8.6641e-05 -9.21826e-05 -0.0102362 -0.0106865 -0.00965183 -0.0102362 -0.0172679 -0.018281 -0.0102362 -0.0106865 -0.018281 -0.019057 -9.21826e-05 -9.6349e-05 -0.0106865 -0.0109939 -9.6349e-05 -9.89977e-05 -0.0109939 -0.0111509 -0.0106865 -0.0109939 -0.019057 -0.0195811 -0.0109939 -0.0111509 -0.0195811 -0.0198408 -0.0172679 -0.018281 -0.0231868 -0.0245123 -0.018281 -0.019057 -0.0245123 -0.0255234 -0.0231868 -0.0245123 -0.0278037 -0.0293633 -0.0245123 -0.0255234 -0.0293633 -0.0305506 -0.019057 -0.0195811 -0.0255234 -0.026201 -0.0195811 -0.0198408 -0.026201 -0.0265295 -0.0255234 -0.026201 -0.0305506 -0.0313435 -0.026201 -0.0265295 -0.0313435 -0.0317241 -0.0184426 -0.0211753 -0.0210198 -0.0240858 -0.0211753 -0.0236757 -0.0240858 -0.0268886 -0.0210198 -0.0240858 -0.0232065 -0.0265571 -0.0240858 -0.0268886 -0.0265571 -0.0296185 -0.0236757 -0.0258975 -0.0268886 -0.0293779 -0.0258975 -0.0278037 -0.0293779 -0.0315131 -0.0268886 -0.0293779 -0.0296185 -0.032338 -0.0293779 -0.0315131 -0.032338 -0.0346727 -0.0232065 -0.0265571 -0.0252027 -0.0288194 -0.0265571 -0.0296185 -0.0288194 -0.0321239 -0.0252027 -0.0288194 -0.0271778 -0.0310639 -0.0288194 -0.0321239 -0.0310639 -0.0346163 -0.0296185 -0.032338 -0.0321239 -0.0350618 -0.032338 -0.0346727 -0.0350618 -0.0375888 -0.0321239 -0.0350618 -0.0346163 -0.0377794 -0.0350618 -0.0375888 -0.0377794 -0.0405081 -0.0278037 -0.0293633 -0.0315131 -0.0332605 -0.0293633 -0.0305506 -0.0332605 -0.0345915 -0.0315131 -0.0332605 -0.0346727 -0.0365868 -0.0332605 -0.0345915 -0.0365868 -0.0380496 -0.0305506 -0.0313435 -0.0345915 -0.0354818 -0.0313435 -0.0317241 -0.0354818 -0.0359113 -0.0345915 -0.0354818 -0.0380496 -0.0390348 -0.0354818 -0.0359113 -0.0390348 -0.0395202 -0.0346727 -0.0365868 -0.0375888 -0.0396677 -0.0365868 -0.0380496 -0.0396677 -0.0412662 -0.0375888 -0.0396677 -0.0405081 -0.0427641 -0.0396677 -0.0412662 -0.0427641 -0.0445134 -0.0380496 -0.0390348 -0.0412662 -0.0423557 -0.0390348 -0.0395202 -0.0423557 -0.0429116 -0.0412662 -0.0423557 -0.0445134 -0.0457256 -0.0423557 -0.0429116 -0.0457256 -0.0463727 5.4925e-05 -0.000868206 0.000367414 -0.000975637 -0.000868206 -0.00306505 -0.000975637 -0.00329541 0.000367414 -0.000975637 0.000772011 -0.00110357 -0.000975637 -0.00329541 -0.00110357 -0.00355123 -0.00306505 -0.00628569 -0.00329541 -0.00678141 -0.00628569 -0.0101441 -0.00678141 -0.0109416 -0.00329541 -0.00678141 -0.00355123 -0.00733298 -0.00678141 -0.0109416 -0.00733298 -0.0118256 0.000772011 -0.00110357 0.0012746 -0.00125627 -0.00110357 -0.00355123 -0.00125627 -0.00384463 0.0012746 -0.00125627 0.00188287 -0.00143766 -0.00125627 -0.00384463 -0.00143766 -0.00418565 -0.00355123 -0.00733298 -0.00384463 -0.00796468 -0.00733298 -0.0118256 -0.00796468 -0.0128334 -0.00384463 -0.00796468 -0.00418565 -0.00869691 -0.00796468 -0.0128334 -0.00869691 -0.0139959 -0.0101441 -0.0143628 -0.0109416 -0.0154878 -0.0143628 -0.0187153 -0.0154878 -0.020172 -0.0109416 -0.0154878 -0.0118256 -0.0167325 -0.0154878 -0.020172 -0.0167325 -0.0217814 -0.0187153 -0.0230298 -0.020172 -0.0248102 -0.0230298 -0.0271778 -0.0248102 -0.0292661 -0.020172 -0.0248102 -0.0217814 -0.0267754 -0.0248102 -0.0292661 -0.0267754 -0.0315699 -0.0118256 -0.0167325 -0.0128334 -0.0181463 -0.0167325 -0.0217814 -0.0181463 -0.0236039 -0.0128334 -0.0181463 -0.0139959 -0.0197701 -0.0181463 -0.0236039 -0.0197701 -0.0256887 -0.0217814 -0.0267754 -0.0236039 -0.028995 -0.0267754 -0.0315699 -0.028995 -0.0341663 -0.0236039 -0.028995 -0.0256887 -0.0315244 -0.028995 -0.0341663 -0.0315244 -0.037115 0.00188287 -0.00143766 0.00260647 -0.00165188 -0.00143766 -0.00418565 -0.00165188 -0.00458407 0.00260647 -0.00165188 0.00345711 -0.00190378 -0.00165188 -0.00458407 -0.00190378 -0.00505097 -0.00418565 -0.00869691 -0.00458407 -0.00954935 -0.00869691 -0.0139959 -0.00954935 -0.0153427 -0.00458407 -0.00954935 -0.00505097 -0.010544 -0.00954935 -0.0153427 -0.010544 -0.0169058 0.00345711 -0.00190378 0.00444889 -0.00219957 -0.00190378 -0.00505097 -0.00219957 -0.00560048 0.00444889 -0.00219957 0.00559884 -0.00254741 -0.00219957 -0.00560048 -0.00254741 -0.00625159 -0.00505097 -0.010544 -0.00560048 -0.011708 -0.010544 -0.0169058 -0.011708 -0.0187242 -0.00560048 -0.011708 -0.00625159 -0.0130773 -0.011708 -0.0187242 -0.0130773 -0.0208475 -0.0139959 -0.0197701 -0.0153427 -0.0216421 -0.0197701 -0.0256887 -0.0216421 -0.0280801 -0.0153427 -0.0216421 -0.0169058 -0.0238025 -0.0216421 -0.0280801 -0.0238025 -0.0308238 -0.0256887 -0.0315244 -0.0280801 -0.034412 -0.0315244 -0.037115 -0.034412 -0.0404663 -0.0280801 -0.034412 -0.0308238 -0.0377057 -0.034412 -0.0404663 -0.0377057 -0.0442674 -0.0169058 -0.0238025 -0.0187242 -0.0262987 -0.0238025 -0.0308238 -0.0262987 -0.0339717 -0.0187242 -0.0262987 -0.0208475 -0.0291898 -0.0262987 -0.0339717 -0.0291898 -0.0375861 -0.0308238 -0.0377057 -0.0339717 -0.0414575 -0.0377057 -0.0442674 -0.0414575 -0.0485671 -0.0339717 -0.0414575 -0.0375861 -0.0457278 -0.0414575 -0.0485671 -0.0457278 -0.0534189 -0.0271778 -0.0310639 -0.0292661 -0.0334405 -0.0310639 -0.0346163 -0.0334405 -0.0372597 -0.0292661 -0.0334405 -0.0315699 -0.0360617 -0.0334405 -0.0372597 -0.0360617 -0.0401758 -0.0346163 -0.0377794 -0.0372597 -0.0406675 -0.0377794 -0.0405081 -0.0406675 -0.0436183 -0.0372597 -0.0406675 -0.0401758 -0.0438556 -0.0406675 -0.0436183 -0.0438556 -0.047056 -0.0315699 -0.0360617 -0.0341663 -0.0390108 -0.0360617 -0.0401758 -0.0390108 -0.0434526 -0.0341663 -0.0390108 -0.037115 -0.0423502 -0.0390108 -0.0434526 -0.0423502 -0.0471543 -0.0401758 -0.0438556 -0.0434526 -0.047436 -0.0438556 -0.047056 -0.047436 -0.0509171 -0.0434526 -0.047436 -0.0471543 -0.0514739 -0.047436 -0.0509171 -0.0514739 -0.0552679 -0.0405081 -0.0427641 -0.0436183 -0.0460732 -0.0427641 -0.0445134 -0.0460732 -0.047997 -0.0436183 -0.0460732 -0.047056 -0.0497379 -0.0460732 -0.047997 -0.0497379 -0.0518653 -0.0445134 -0.0457256 -0.047997 -0.0493567 -0.0457256 -0.0463727 -0.0493567 -0.0501211 -0.047997 -0.0493567 -0.0518653 -0.053403 -0.0493567 -0.0501211 -0.053403 -0.054316 -0.047056 -0.0497379 -0.0509171 -0.0538578 -0.0497379 -0.0518653 -0.0538578 -0.0562219 -0.0509171 -0.0538578 -0.0552679 -0.0585005 -0.0538578 -0.0562219 -0.0585005 -0.0611371 -0.0518653 -0.053403 -0.0562219 -0.0579728 -0.053403 -0.054316 -0.0579728 -0.0590713 -0.0562219 -0.0579728 -0.0611371 -0.0631402 -0.0579728 -0.0590713 -0.0631402 -0.0644673 -0.037115 -0.0423502 -0.0404663 -0.0461302 -0.0423502 -0.0471543 -0.0461302 -0.0513301 -0.0404663 -0.0461302 -0.0442674 -0.0503953 -0.0461302 -0.0513301 -0.0503953 -0.0560201 -0.0471543 -0.0514739 -0.0513301 -0.0560167 -0.0514739 -0.0552679 -0.0560167 -0.0601538 -0.0513301 -0.0560167 -0.0560201 -0.0610995 -0.0560167 -0.0601538 -0.0610995 -0.0656057 -0.0442674 -0.0503953 -0.0485671 -0.0551883 -0.0503953 -0.0560201 -0.0551883 -0.0612594 -0.0485671 -0.0551883 -0.0534189 -0.0605523 -0.0551883 -0.0612594 -0.0605523 -0.0670782 -0.0560201 -0.0610995 -0.0612594 -0.0667489 -0.0610995 -0.0656057 -0.0667489 -0.0716413 -0.0612594 -0.0667489 -0.0670782 -0.0729813 -0.0667489 -0.0716413 -0.0729813 -0.0782631 -0.0552679 -0.0585005 -0.0601538 -0.0637108 -0.0585005 -0.0611371 -0.0637108 -0.0666563 -0.0601538 -0.0637108 -0.0656057 -0.0695158 -0.0637108 -0.0666563 -0.0695158 -0.0728051 -0.0611371 -0.0631402 -0.0666563 -0.068954 -0.0631402 -0.0644673 -0.068954 -0.0705592 -0.0666563 -0.068954 -0.0728051 -0.0754412 -0.068954 -0.0705592 -0.0754412 -0.0773798 -0.0656057 -0.0695158 -0.0716413 -0.0759258 -0.0695158 -0.0728051 -0.0759258 -0.0795886 -0.0716413 -0.0759258 -0.0782631 -0.0829305 -0.0759258 -0.0795886 -0.0829305 -0.0869858 -0.0728051 -0.0754412 -0.0795886 -0.0826056 -0.0754412 -0.0773798 -0.0826056 -0.0849362 -0.0795886 -0.0826056 -0.0869858 -0.0904187 -0.0826056 -0.0849362 -0.0904187 -0.0931986 -9.89977e-05 -9.99928e-05 -0.0111509 -0.0111513 -9.99928e-05 -9.92132e-05 -0.0111513 -0.0109906 -0.0111509 -0.0111513 -0.0198408 -0.0198265 -0.0111513 -0.0109906 -0.0198265 -0.0195312 -9.92132e-05 -9.65515e-05 -0.0109906 -0.0106665 -9.65515e-05 -9.19197e-05 -0.0106665 -0.0101794 -0.0109906 -0.0106665 -0.0195312 -0.0189522 -0.0106665 -0.0101794 -0.0189522 -0.0180911 -0.0198408 -0.0198265 -0.0265295 -0.0264968 -0.0198265 -0.0195312 -0.0264968 -0.026095 -0.0265295 -0.0264968 -0.0317241 -0.0316786 -0.0264968 -0.026095 -0.0316786 -0.0311979 -0.0195312 -0.0189522 -0.026095 -0.0253212 -0.0189522 -0.0180911 -0.0253212 -0.0241785 -0.026095 -0.0253212 -0.0311979 -0.0302791 -0.0253212 -0.0241785 -0.0302791 -0.0289258 -9.19197e-05 -8.52656e-05 -0.0101794 -0.00953262 -8.52656e-05 -7.65842e-05 -0.00953262 -0.00873394 -0.0101794 -0.00953262 -0.0180911 -0.0169552 -0.00953262 -0.00873394 -0.0169552 -0.015559 -7.65842e-05 -6.59281e-05 -0.00873394 -0.00779622 -6.59281e-05 -5.34285e-05 -0.00779622 -0.00673927 -0.00873394 -0.00779622 -0.015559 -0.0139261 -0.00779622 -0.00673927 -0.0139261 -0.0120918 -0.0180911 -0.0169552 -0.0241785 -0.0226773 -0.0169552 -0.015559 -0.0226773 -0.0208376 -0.0241785 -0.0226773 -0.0289258 -0.0271507 -0.0226773 -0.0208376 -0.0271507 -0.024977 -0.015559 -0.0139261 -0.0208376 -0.0186907 -0.0139261 -0.0120918 -0.0186907 -0.0162832 -0.0208376 -0.0186907 -0.024977 -0.0224416 -0.0186907 -0.0162832 -0.0224416 -0.0195986 -0.0317241 -0.0316786 -0.0359113 -0.0358645 -0.0316786 -0.0311979 -0.0358645 -0.0353309 -0.0359113 -0.0358645 -0.0395202 -0.0394879 -0.0358645 -0.0353309 -0.0394879 -0.0389253 -0.0311979 -0.0302791 -0.0353309 -0.0343065 -0.0302791 -0.0289258 -0.0343065 -0.0327945 -0.0353309 -0.0343065 -0.0389253 -0.037826 -0.0343065 -0.0327945 -0.037826 -0.0361917 -0.0395202 -0.0394879 -0.0429116 -0.042913 -0.0394879 -0.0389253 -0.042913 -0.0423439 -0.0429116 -0.042913 -0.0463727 -0.0464301 -0.042913 -0.0423439 -0.0464301 -0.045877 -0.0389253 -0.037826 -0.0423439 -0.0411942 -0.037826 -0.0361917 -0.0411942 -0.0394624 -0.0423439 -0.0411942 -0.045877 -0.0446983 -0.0411942 -0.0394624 -0.0446983 -0.042887 -0.0289258 -0.0271507 -0.0327945 -0.0308082 -0.0271507 -0.024977 -0.0308082 -0.0283725 -0.0327945 -0.0308082 -0.0361917 -0.0340344 -0.0308082 -0.0283725 -0.0340344 -0.0313792 -0.024977 -0.0224416 -0.0283725 -0.0255278 -0.0224416 -0.0195986 -0.0255278 -0.0223329 -0.0283725 -0.0255278 -0.0313792 -0.0282681 -0.0255278 -0.0223329 -0.0282681 -0.0247638 -0.0361917 -0.0340344 -0.0394624 -0.0371576 -0.0340344 -0.0313792 -0.0371576 -0.0343033 -0.0394624 -0.0371576 -0.042887 -0.0404472 -0.0371576 -0.0343033 -0.0404472 -0.0373991 -0.0313792 -0.0282681 -0.0343033 -0.0309417 -0.0282681 -0.0247638 -0.0309417 -0.0271387 -0.0343033 -0.0309417 -0.0373991 -0.0337837 -0.0309417 -0.0271387 -0.0337837 -0.0296696 -5.34285e-05 -3.93161e-05 -0.00673927 -0.00559217 -3.93161e-05 -2.40865e-05 -0.00559217 -0.00439532 -0.00673927 -0.00559217 -0.0120918 -0.0101065 -0.00559217 -0.00439532 -0.0101065 -0.00803914 -2.40865e-05 -8.176e-06 -0.00439532 -0.00320594 -8.176e-06 5.65816e-06 -0.00320594 -0.00208528 -0.00439532 -0.00320594 -0.00803914 -0.00598247 -0.00320594 -0.00208528 -0.00598247 -0.00403831 -0.0120918 -0.0101065 -0.0162832 -0.0136802 -0.0101065 -0.00803914 -0.0136802 -0.0109687 -0.0162832 -0.0136802 -0.0195986 -0.0165228 -0.0136802 -0.0109687 -0.0165228 -0.0133136 -0.00803914 -0.00598247 -0.0109687 -0.00826325 -0.00598247 -0.00403831 -0.00826325 -0.00568997 -0.0109687 -0.00826325 -0.0133136 -0.0100997 -0.00826325 -0.00568997 -0.0100997 -0.00702442 5.65816e-06 1.737e-05 -0.00208528 -0.00117439 1.737e-05 5.58361e-05 -0.00117439 -0.000244775 -0.00208528 -0.00117439 -0.00403831 -0.00240046 -0.00117439 -0.000244775 -0.00240046 -0.000847748 5.58361e-05 -1.32995e-05 -0.000244775 -0.00103445 -1.32995e-05 0.00827271 -0.00103445 0.00734016 -0.000244775 -0.00103445 -0.000847748 -0.00125968 -0.00103445 0.00734016 -0.00125968 0.0076453 -0.00403831 -0.00240046 -0.00568997 -0.00346854 -0.00240046 -0.000847748 -0.00346854 -0.00140622 -0.00568997 -0.00346854 -0.00702442 -0.00432736 -0.00346854 -0.00140622 -0.00432736 -0.00184924 -0.000847748 -0.00125968 -0.00140622 -0.00143893 -0.00125968 0.0076453 -0.00143893 0.00748935 -0.00140622 -0.00143893 -0.00184924 -0.00155861 -0.00143893 0.00748935 -0.00155861 0.00738986 -0.0195986 -0.0165228 -0.0223329 -0.0188703 -0.0165228 -0.0133136 -0.0188703 -0.0152485 -0.0223329 -0.0188703 -0.0247638 -0.0209548 -0.0188703 -0.0152485 -0.0209548 -0.0169593 -0.0133136 -0.0100997 -0.0152485 -0.0116086 -0.0100997 -0.00702442 -0.0116086 -0.00810964 -0.0152485 -0.0116086 -0.0169593 -0.0129313 -0.0116086 -0.00810964 -0.0129313 -0.00904713 -0.0247638 -0.0209548 -0.0271387 -0.0229893 -0.0209548 -0.0169593 -0.0229893 -0.0186222 -0.0271387 -0.0229893 -0.0296696 -0.0251587 -0.0229893 -0.0186222 -0.0251587 -0.0203928 -0.0169593 -0.0129313 -0.0186222 -0.014207 -0.0129313 -0.00904713 -0.014207 -0.00994086 -0.0186222 -0.014207 -0.0203928 -0.0155606 -0.014207 -0.00994086 -0.0155606 -0.0108839 -0.00702442 -0.00432736 -0.00810964 -0.00501237 -0.00432736 -0.00184924 -0.00501237 -0.00218903 -0.00810964 -0.00501237 -0.00904713 -0.00559183 -0.00501237 -0.00218903 -0.00559183 -0.0024664 -0.00184924 -0.00155861 -0.00218903 -0.00164934 -0.00155861 0.00738986 -0.00164934 0.00735939 -0.00218903 -0.00164934 -0.0024664 -0.00172964 -0.00164934 0.00735939 -0.00172964 0.00739411 -0.00904713 -0.00559183 -0.00994086 -0.0061362 -0.00559183 -0.0024664 -0.0061362 -0.00272014 -0.00994086 -0.0061362 -0.0108839 -0.0067072 -0.0061362 -0.00272014 -0.0067072 -0.00298277 -0.0024664 -0.00172964 -0.00272014 -0.00181162 -0.00172964 0.00739411 -0.00181162 0.00749716 -0.00272014 -0.00181162 -0.00298277 -0.00190535 -0.00181162 0.00749716 -0.00190535 0.00766801 -0.0463727 -0.0464301 -0.0501211 -0.0502606 -0.0464301 -0.045877 -0.0502606 -0.0497485 -0.0501211 -0.0502606 -0.054316 -0.054569 -0.0502606 -0.0497485 -0.054569 -0.0541274 -0.045877 -0.0446983 -0.0497485 -0.0485623 -0.0446983 -0.042887 -0.0485623 -0.0466873 -0.0497485 -0.0485623 -0.0541274 -0.0529596 -0.0485623 -0.0466873 -0.0529596 -0.0510399 -0.054316 -0.054569 -0.0590713 -0.0594758 -0.054569 -0.0541274 -0.0594758 -0.0591424 -0.0590713 -0.0594758 -0.0644673 -0.06507 -0.0594758 -0.0591424 -0.06507 -0.0648934 -0.0541274 -0.0529596 -0.0591424 -0.0580272 -0.0529596 -0.0510399 -0.0580272 -0.0560902 -0.0591424 -0.0580272 -0.0648934 -0.0638785 -0.0580272 -0.0560902 -0.0638785 -0.0619668 -0.042887 -0.0404472 -0.0466873 -0.0441203 -0.0404472 -0.0373991 -0.0441203 -0.0408753 -0.0466873 -0.0441203 -0.0510399 -0.0483543 -0.0441203 -0.0408753 -0.0483543 -0.0449076 -0.0373991 -0.0337837 -0.0408753 -0.0369907 -0.0337837 -0.0296696 -0.0369907 -0.0325364 -0.0408753 -0.0369907 -0.0449076 -0.0407323 -0.0369907 -0.0325364 -0.0407323 -0.0358986 -0.0510399 -0.0483543 -0.0560902 -0.0533023 -0.0483543 -0.0449076 -0.0533023 -0.0496539 -0.0560902 -0.0533023 -0.0619668 -0.0591076 -0.0533023 -0.0496539 -0.0591076 -0.0552706 -0.0449076 -0.0407323 -0.0496539 -0.0451674 -0.0407323 -0.0358986 -0.0451674 -0.0399099 -0.0496539 -0.0451674 -0.0552706 -0.0504607 -0.0451674 -0.0399099 -0.0504607 -0.0447367 -0.0644673 -0.06507 -0.0705592 -0.0714168 -0.06507 -0.0648934 -0.0714168 -0.0714601 -0.0705592 -0.0714168 -0.0773798 -0.0785603 -0.0714168 -0.0714601 -0.0785603 -0.078904 -0.0648934 -0.0638785 -0.0714601 -0.0706121 -0.0638785 -0.0619668 -0.0706121 -0.0687901 -0.0714601 -0.0706121 -0.078904 -0.0783134 -0.0706121 -0.0687901 -0.0783134 -0.0766764 -0.0773798 -0.0785603 -0.0849362 -0.086518 -0.0785603 -0.078904 -0.086518 -0.0872613 -0.0849362 -0.086518 -0.0931986 -0.0952659 -0.086518 -0.0872613 -0.0952659 -0.0965251 -0.078904 -0.0783134 -0.0872613 -0.0870475 -0.0783134 -0.0766764 -0.0870475 -0.0857298 -0.0872613 -0.0870475 -0.0965251 -0.0968373 -0.0870475 -0.0857298 -0.0968373 -0.0960189 -0.0619668 -0.0591076 -0.0687901 -0.065915 -0.0591076 -0.0552706 -0.065915 -0.0619255 -0.0687901 -0.065915 -0.0766764 -0.0738758 -0.065915 -0.0619255 -0.0738758 -0.0698069 -0.0552706 -0.0504607 -0.0619255 -0.0567989 -0.0504607 -0.0447367 -0.0567989 -0.0505759 -0.0619255 -0.0567989 -0.0698069 -0.0644036 -0.0567989 -0.0505759 -0.0644036 -0.0576728 -0.0766764 -0.0738758 -0.0857298 -0.0831429 -0.0738758 -0.0698069 -0.0831429 -0.0791221 -0.0857298 -0.0831429 -0.0960189 -0.0938466 -0.0831429 -0.0791221 -0.0938466 