# vtk DataFile Version 3.0
#This file was generated by the deal.II library on 2026/1/5 at 14:19:39
ASCII
DATASET UNSTRUCTURED_GRID

POINTS 4096 double
0 0 0
0.03125 0 0
0 0.03125 0
0.03125 0.03125 0
0.03125 0 0
0.0625 0 0
0.03125 0.03125 0
0.0625 0.03125 0
0 0.03125 0
0.03125 0.03125 0
0 0.0625 0
0.03125 0.0625 0
0.03125 0.03125 0
0.0625 0.03125 0
0.03125 0.0625 0
0.0625 0.0625 0
0.0625 0 0
0.09375 0 0
0.0625 0.03125 0
0.09375 0.03125 0
0.09375 0 0
0.125 0 0
0.09375 0.03125 0
0.125 0.03125 0
0.0625 0.03125 0
0.09375 0.03125 0
0.0625 0.0625 0
0.09375 0.0625 0
0.09375 0.03125 0
0.125 0.03125 0
0.09375 0.0625 0
0.125 0.0625 0
0 0.0625 0
0.03125 0.0625 0
0 0.09375 0
0.03125 0.09375 0
0.03125 0.0625 0
0.0625 0.0625 0
0.03125 0.09375 0
0.0625 0.09375 0
0 0.09375 0
0.03125 0.09375 0
0 0.125 0
0.03125 0.125 0
0.03125 0.09375 0
0.0625 0.09375 0
0.03125 0.125 0
0.0625 0.125 0
0.0625 0.0625 0
0.09375 0.0625 0
0.0625 0.09375 0
0.09375 0.09375 0
0.09375 0.0625 0
0.125 0.0625 0
0.09375 0.09375 0
0.125 0.09375 0
0.0625 0.09375 0
0.09375 0.09375 0
0.0625 0.125 0
0.09375 0.125 0
0.09375 0.09375 0
0.125 0.09375 0
0.09375 0.125 0
0.125 0.125 0
0.125 0 0
0.15625 0 0
0.125 0.03125 0
0.15625 0.03125 0
0.15625 0 0
0.1875 0 0
0.15625 0.03125 0
0.1875 0.03125 0
0.125 0.03125 0
0.15625 0.03125 0
0.125 0.0625 0
0.15625 0.0625 0
0.15625 0.03125 0
0.1875 0.03125 0
0.15625 0.0625 0
0.1875 0.0625 0
0.1875 0 0
0.21875 0 0
0.1875 0.03125 0
0.21875 0.03125 0
0.21875 0 0
0.25 0 0
0.21875 0.03125 0
0.25 0.03125 0
0.1875 0.03125 0
0.21875 0.03125 0
0.1875 0.0625 0
0.21875 0.0625 0
0.21875 0.03125 0
0.25 0.03125 0
0.21875 0.0625 0
0.25 0.0625 0
0.125 0.0625 0
0.15625 0.0625 0
0.125 0.09375 0
0.15625 0.09375 0
0.15625 0.0625 0
0.1875 0.0625 0
0.15625 0.09375 0
0.1875 0.09375 0
0.125 0.09375 0
0.15625 0.09375 0
0.125 0.125 0
0.15625 0.125 0
0.15625 0.09375 0
0.1875 0.09375 0
0.15625 0.125 0
0.1875 0.125 0
0.1875 0.0625 0
0.21875 0.0625 0
0.1875 0.09375 0
0.21875 0.09375 0
0.21875 0.0625 0
0.25 0.0625 0
0.21875 0.09375 0
0.25 0.09375 0
0.1875 0.09375 0
0.21875 0.09375 0
0.1875 0.125 0
0.21875 0.125 0
0.21875 0.09375 0
0.25 0.09375 0
0.21875 0.125 0
0.25 0.125 0
0 0.125 0
0.03125 0.125 0
0 0.15625 0
0.03125 0.15625 0
0.03125 0.125 0
0.0625 0.125 0
0.03125 0.15625 0
0.0625 0.15625 0
0 0.15625 0
0.03125 0.15625 0
0 0.1875 0
0.03125 0.1875 0
0.03125 0.15625 0
0.0625 0.15625 0
0.03125 0.1875 0
0.0625 0.1875 0
0.0625 0.125 0
0.09375 0.125 0
0.0625 0.15625 0
0.09375 0.15625 0
0.09375 0.125 0
0.125 0.125 0
0.09375 0.15625 0
0.125 0.15625 0
0.0625 0.15625 0
0.09375 0.15625 0
0.0625 0.1875 0
0.09375 0.1875 0
0.09375 0.15625 0
0.125 0.15625 0
0.09375 0.1875 0
0.125 0.1875 0
0 0.1875 0
0.03125 0.1875 0
0 0.21875 0
0.03125 0.21875 0
0.03125 0.1875 0
0.0625 0.1875 0
0.03125 0.21875 0
0.0625 0.21875 0
0 0.21875 0
0.03125 0.21875 0
0 0.25 0
0.03125 0.25 0
0.03125 0.21875 0
0.0625 0.21875 0
0.03125 0.25 0
0.0625 0.25 0
0.0625 0.1875 0
0.09375 0.1875 0
0.0625 0.21875 0
0.09375 0.21875 0
0.09375 0.1875 0
0.125 0.1875 0
0.09375 0.21875 0
0.125 0.21875 0
0.0625 0.21875 0
0.09375 0.21875 0
0.0625 0.25 0
0.09375 0.25 0
0.09375 0.21875 0
0.125 0.21875 0
0.09375 0.25 0
0.125 0.25 0
0.125 0.125 0
0.15625 0.125 0
0.125 0.15625 0
0.15625 0.15625 0
0.15625 0.125 0
0.1875 0.125 0
0.15625 0.15625 0
0.1875 0.15625 0
0.125 0.15625 0
0.15625 0.15625 0
0.125 0.1875 0
0.15625 0.1875 0
0.15625 0.15625 0
0.1875 0.15625 0
0.15625 0.1875 0
0.1875 0.1875 0
0.1875 0.125 0
0.21875 0.125 0
0.1875 0.15625 0
0.21875 0.15625 0
0.21875 0.125 0
0.25 0.125 0
0.21875 0.15625 0
0.25 0.15625 0
0.1875 0.15625 0
0.21875 0.15625 0
0.1875 0.1875 0
0.21875 0.1875 0
0.21875 0.15625 0
0.25 0.15625 0
0.21875 0.1875 0
0.25 0.1875 0
0.125 0.1875 0
0.15625 0.1875 0
0.125 0.21875 0
0.15625 0.21875 0
0.15625 0.1875 0
0.1875 0.1875 0
0.15625 0.21875 0
0.1875 0.21875 0
0.125 0.21875 0
0.15625 0.21875 0
0.125 0.25 0
0.15625 0.25 0
0.15625 0.21875 0
0.1875 0.21875 0
0.15625 0.25 0
0.1875 0.25 0
0.1875 0.1875 0
0.21875 0.1875 0
0.1875 0.21875 0
0.21875 0.21875 0
0.21875 0.1875 0
0.25 0.1875 0
0.21875 0.21875 0
0.25 0.21875 0
0.1875 0.21875 0
0.21875 0.21875 0
0.1875 0.25 0
0.21875 0.25 0
0.21875 0.21875 0
0.25 0.21875 0
0.21875 0.25 0
0.25 0.25 0
0.25 0 0
0.28125 0 0
0.25 0.03125 0
0.28125 0.03125 0
0.28125 0 0
0.3125 0 0
0.28125 0.03125 0
0.3125 0.03125 0
0.25 0.03125 0
0.28125 0.03125 0
0.25 0.0625 0
0.28125 0.0625 0
0.28125 0.03125 0
0.3125 0.03125 0
0.28125 0.0625 0
0.3125 0.0625 0
0.3125 0 0
0.34375 0 0
0.3125 0.03125 0
0.34375 0.03125 0
0.34375 0 0
0.375 0 0
0.34375 0.03125 0
0.375 0.03125 0
0.3125 0.03125 0
0.34375 0.03125 0
0.3125 0.0625 0
0.34375 0.0625 0
0.34375 0.03125 0
0.375 0.03125 0
0.34375 0.0625 0
0.375 0.0625 0
0.25 0.0625 0
0.28125 0.0625 0
0.25 0.09375 0
0.28125 0.09375 0
0.28125 0.0625 0
0.3125 0.0625 0
0.28125 0.09375 0
0.3125 0.09375 0
0.25 0.09375 0
0.28125 0.09375 0
0.25 0.125 0
0.28125 0.125 0
0.28125 0.09375 0
0.3125 0.09375 0
0.28125 0.125 0
0.3125 0.125 0
0.3125 0.0625 0
0.34375 0.0625 0
0.3125 0.09375 0
0.34375 0.09375 0
0.34375 0.0625 0
0.375 0.0625 0
0.34375 0.09375 0
0.375 0.09375 0
0.3125 0.09375 0
0.34375 0.09375 0
0.3125 0.125 0
0.34375 0.125 0
0.34375 0.09375 0
0.375 0.09375 0
0.34375 0.125 0
0.375 0.125 0
0.375 0 0
0.40625 0 0
0.375 0.03125 0
0.40625 0.03125 0
0.40625 0 0
0.4375 0 0
0.40625 0.03125 0
0.4375 0.03125 0
0.375 0.03125 0
0.40625 0.03125 0
0.375 0.0625 0
0.40625 0.0625 0
0.40625 0.03125 0
0.4375 0.03125 0
0.40625 0.0625 0
0.4375 0.0625 0
0.4375 0 0
0.46875 0 0
0.4375 0.03125 0
0.46875 0.03125 0
0.46875 0 0
0.5 0 0
0.46875 0.03125 0
0.5 0.03125 0
0.4375 0.03125 0
0.46875 0.03125 0
0.4375 0.0625 0
0.46875 0.0625 0
0.46875 0.03125 0
0.5 0.03125 0
0.46875 0.0625 0
0.5 0.0625 0
0.375 0.0625 0
0.40625 0.0625 0
0.375 0.09375 0
0.40625 0.09375 0
0.40625 0.0625 0
0.4375 0.0625 0
0.40625 0.09375 0
0.4375 0.09375 0
0.375 0.09375 0
0.40625 0.09375 0
0.375 0.125 0
0.40625 0.125 0
0.40625 0.09375 0
0.4375 0.09375 0
0.40625 0.125 0
0.4375 0.125 0
0.4375 0.0625 0
0.46875 0.0625 0
0.4375 0.09375 0
0.46875 0.09375 0
0.46875 0.0625 0
0.5 0.0625 0
0.46875 0.09375 0
0.5 0.09375 0
0.4375 0.09375 0
0.46875 0.09375 0
0.4375 0.125 0
0.46875 0.125 0
0.46875 0.09375 0
0.5 0.09375 0
0.46875 0.125 0
0.5 0.125 0
0.25 0.125 0
0.28125 0.125 0
0.25 0.15625 0
0.28125 0.15625 0
0.28125 0.125 0
0.3125 0.125 0
0.28125 0.15625 0
0.3125 0.15625 0
0.25 0.15625 0
0.28125 0.15625 0
0.25 0.1875 0
0.28125 0.1875 0
0.28125 0.15625 0
0.3125 0.15625 0
0.28125 0.1875 0
0.3125 0.1875 0
0.3125 0.125 0
0.34375 0.125 0
0.3125 0.15625 0
0.34375 0.15625 0
0.34375 0.125 0
0.375 0.125 0
0.34375 0.15625 0
0.375 0.15625 0
0.3125 0.15625 0
0.34375 0.15625 0
0.3125 0.1875 0
0.34375 0.1875 0
0.34375 0.15625 0
0.375 0.15625 0
0.34375 0.1875 0
0.375 0.1875 0
0.25 0.1875 0
0.28125 0.1875 0
0.25 0.21875 0
0.28125 0.21875 0
0.28125 0.1875 0
0.3125 0.1875 0
0.28125 0.21875 0
0.3125 0.21875 0
0.25 0.21875 0
0.28125 0.21875 0
0.25 0.25 0
0.28125 0.25 0
0.28125 0.21875 0
0.3125 0.21875 0
0.28125 0.25 0
0.3125 0.25 0
0.3125 0.1875 0
0.34375 0.1875 0
0.3125 0.21875 0
0.34375 0.21875 0
0.34375 0.1875 0
0.375 0.1875 0
0.34375 0.21875 0
0.375 0.21875 0
0.3125 0.21875 0
0.34375 0.21875 0
0.3125 0.25 0
0.34375 0.25 0
0.34375 0.21875 0
0.375 0.21875 0
0.34375 0.25 0
0.375 0.25 0
0.375 0.125 0
0.40625 0.125 0
0.375 0.15625 0
0.40625 0.15625 0
0.40625 0.125 0
0.4375 0.125 0
0.40625 0.15625 0
0.4375 0.15625 0
0.375 0.15625 0
0.40625 0.15625 0
0.375 0.1875 0
0.40625 0.1875 0
0.40625 0.15625 0
0.4375 0.15625 0
0.40625 0.1875 0
0.4375 0.1875 0
0.4375 0.125 0
0.46875 0.125 0
0.4375 0.15625 0
0.46875 0.15625 0
0.46875 0.125 0
0.5 0.125 0
0.46875 0.15625 0
0.5 0.15625 0
0.4375 0.15625 0
0.46875 0.15625 0
0.4375 0.1875 0
0.46875 0.1875 0
0.46875 0.15625 0
0.5 0.15625 0
0.46875 0.1875 0
0.5 0.1875 0
0.375 0.1875 0
0.40625 0.1875 0
0.375 0.21875 0
0.40625 0.21875 0
0.40625 0.1875 0
0.4375 0.1875 0
0.40625 0.21875 0
0.4375 0.21875 0
0.375 0.21875 0
0.40625 0.21875 0
0.375 0.25 0
0.40625 0.25 0
0.40625 0.21875 0
0.4375 0.21875 0
0.40625 0.25 0
0.4375 0.25 0
0.4375 0.1875 0
0.46875 0.1875 0
0.4375 0.21875 0
0.46875 0.21875 0
0.46875 0.1875 0
0.5 0.1875 0
0.46875 0.21875 0
0.5 0.21875 0
0.4375 0.21875 0
0.46875 0.21875 0
0.4375 0.25 0
0.46875 0.25 0
0.46875 0.21875 0
0.5 0.21875 0
0.46875 0.25 0
0.5 0.25 0
0 0.25 0
0.03125 0.25 0
0 0.28125 0
0.03125 0.28125 0
0.03125 0.25 0
0.0625 0.25 0
0.03125 0.28125 0
0.0625 0.28125 0
0 0.28125 0
0.03125 0.28125 0
0 0.3125 0
0.03125 0.3125 0
0.03125 0.28125 0
0.0625 0.28125 0
0.03125 0.3125 0
0.0625 0.3125 0
0.0625 0.25 0
0.09375 0.25 0
0.0625 0.28125 0
0.09375 0.28125 0
0.09375 0.25 0
0.125 0.25 0
0.09375 0.28125 0
0.125 0.28125 0
0.0625 0.28125 0
0.09375 0.28125 0
0.0625 0.3125 0
0.09375 0.3125 0
0.09375 0.28125 0
0.125 0.28125 0
0.09375 0.3125 0
0.125 0.3125 0
0 0.3125 0
0.03125 0.3125 0
0 0.34375 0
0.03125 0.34375 0
0.03125 0.3125 0
0.0625 0.3125 0
0.03125 0.34375 0
0.0625 0.34375 0
0 0.34375 0
0.03125 0.34375 0
0 0.375 0
0.03125 0.375 0
0.03125 0.34375 0
0.0625 0.34375 0
0.03125 0.375 0
0.0625 0.375 0
0.0625 0.3125 0
0.09375 0.3125 0
0.0625 0.34375 0
0.09375 0.34375 0
0.09375 0.3125 0
0.125 0.3125 0
0.09375 0.34375 0
0.125 0.34375 0
0.0625 0.34375 0
0.09375 0.34375 0
0.0625 0.375 0
0.09375 0.375 0
0.09375 0.34375 0
0.125 0.34375 0
0.09375 0.375 0
0.125 0.375 0
0.125 0.25 0
0.15625 0.25 0
0.125 0.28125 0
0.15625 0.28125 0
0.15625 0.25 0
0.1875 0.25 0
0.15625 0.28125 0
0.1875 0.28125 0
0.125 0.28125 0
0.15625 0.28125 0
0.125 0.3125 0
0.15625 0.3125 0
0.15625 0.28125 0
0.1875 0.28125 0
0.15625 0.3125 0
0.1875 0.3125 0
0.1875 0.25 0
0.21875 0.25 0
0.1875 0.28125 0
0.21875 0.28125 0
0.21875 0.25 0
0.25 0.25 0
0.21875 0.28125 0
0.25 0.28125 0
0.1875 0.28125 0
0.21875 0.28125 0
0.1875 0.3125 0
0.21875 0.3125 0
0.21875 0.28125 0
0.25 0.28125 0
0.21875 0.3125 0
0.25 0.3125 0
0.125 0.3125 0
0.15625 0.3125 0
0.125 0.34375 0
0.15625 0.34375 0
0.15625 0.3125 0
0.1875 0.3125 0
0.15625 0.34375 0
0.1875 0.34375 0
0.125 0.34375 0
[...]
POINT_DATA 4096
SCALARS u_x double 1
LOOKUP_TABLE default
1.61634e-05 1.48752e-05 -2.27873e-05 -3.66942e-05 1.48752e-05 2.37233e-05 -3.66942e-05 -0.000333982 -2.27873e-05 -3.66942e-05 -0.000144728 -0.000195946 -3.66942e-05 -0.000333982 -0.000195946 -0.000906336 2.37233e-05 2.24133e-05 -0.000333982 -0.000917591 2.24133e-05 1.45573e-05 -0.000917591 -0.00175751 -0.000333982 -0.000917591 -0.000906336 -0.00205687 -0.000917591 -0.00175751 -0.00205687 -0.00360809 -0.000144728 -0.000195946 -0.000288116 -0.000356153 -0.000195946 -0.000906336 -0.000356153 -0.00148559 -0.000288116 -0.000356153 -0.00040481 -0.00049259 -0.000356153 -0.00148559 -0.00049259 -0.00199446 -0.000906336 -0.00205687 -0.00148559 -0.00316849 -0.00205687 -0.00360809 -0.00316849 -0.00534461 -0.00148559 -0.00316849 -0.00199446 -0.00415557 -0.00316849 -0.00534461 -0.00415557 -0.00688261 1.45573e-05 3.64299e-06 -0.00175751 -0.00277874 3.64299e-06 -8.38291e-06 -0.00277874 -0.0039086 -0.00175751 -0.00277874 -0.00360809 -0.00544668 -0.00277874 -0.0039086 -0.00544668 -0.00746214 -8.38291e-06 -2.05173e-05 -0.0039086 -0.00508441 -2.05173e-05 -3.22371e-05 -0.00508441 -0.00625585 -0.0039086 -0.00508441 -0.00746214 -0.00955324 -0.00508441 -0.00625585 -0.00955324 -0.0116351 -0.00360809 -0.00544668 -0.00534461 -0.00786657 -0.00544668 -0.00746214 -0.00786657 -0.0106004 -0.00534461 -0.00786657 -0.00688261 -0.00999183 -0.00786657 -0.0106004 -0.00999183 -0.0133285 -0.00746214 -0.00955324 -0.0106004 -0.0134211 -0.00955324 -0.0116351 -0.0134211 -0.0162215 -0.0106004 -0.0134211 -0.0133285 -0.0167505 -0.0134211 -0.0162215 -0.0167505 -0.0201356 -0.00040481 -0.00049259 -0.000468198 -0.000607984 -0.00049259 -0.00199446 -0.000607984 -0.00242262 -0.000468198 -0.000607984 -0.000463555 -0.000711149 -0.000607984 -0.00242262 -0.000711149 -0.00278487 -0.00199446 -0.00415557 -0.00242262 -0.00500406 -0.00415557 -0.00688261 -0.00500406 -0.00821706 -0.00242262 -0.00500406 -0.00278487 -0.00573834 -0.00500406 -0.00821706 -0.00573834 -0.00938545 -0.000463555 -0.000711149 -0.00038191 -0.000811022 -0.000711149 -0.00278487 -0.000811022 -0.00310273 -0.00038191 -0.000811022 -0.000216986 -0.000915497 -0.000811022 -0.00310273 -0.000915497 -0.00339783 -0.00278487 -0.00573834 -0.00310273 -0.00639618 -0.00573834 -0.00938545 -0.00639618 -0.0104427 -0.00310273 -0.00639618 -0.00339783 -0.00701736 -0.00639618 -0.0104427 -0.00701736 -0.0114474 -0.00688261 -0.00999183 -0.00821706 -0.0118416 -0.00999183 -0.0133285 -0.0118416 -0.0157013 -0.00821706 -0.0118416 -0.00938545 -0.0134734 -0.0118416 -0.0157013 -0.0134734 -0.0178029 -0.0133285 -0.0167505 -0.0157013 -0.0196386 -0.0167505 -0.0201356 -0.0196386 -0.0235198 -0.0157013 -0.0196386 -0.0178029 -0.0222014 -0.0196386 -0.0235198 -0.0222014 -0.0265249 -0.00938545 -0.0134734 -0.0104427 -0.014962 -0.0134734 -0.0178029 -0.014962 -0.019731 -0.0104427 -0.014962 -0.0114474 -0.0163853 -0.014962 -0.019731 -0.0163853 -0.0215839 -0.0178029 -0.0222014 -0.019731 -0.0245622 -0.0222014 -0.0265249 -0.0245622 -0.0293017 -0.019731 -0.0245622 -0.0215839 -0.0268403 -0.0245622 -0.0293017 -0.0268403 -0.0319911 -3.22371e-05 -4.32839e-05 -0.00625585 -0.00738355 -4.32839e-05 -5.35254e-05 -0.00738355 -0.00843684 -0.00625585 -0.00738355 -0.0116351 -0.0136388 -0.00738355 -0.00843684 -0.0136388 -0.0155093 -5.35254e-05 -6.2876e-05 -0.00843684 -0.00939127 -6.2876e-05 -7.12549e-05 -0.00939127 -0.0102266 -0.00843684 -0.00939127 -0.0155093 -0.0172021 -0.00939127 -0.0102266 -0.0172021 -0.0186802 -0.0116351 -0.0136388 -0.0162215 -0.0189125 -0.0136388 -0.0155093 -0.0189125 -0.0214214 -0.0162215 -0.0189125 -0.0201356 -0.0233812 -0.0189125 -0.0214214 -0.0233812 -0.0264027 -0.0155093 -0.0172021 -0.0214214 -0.0236887 -0.0172021 -0.0186802 -0.0236887 -0.0256647 -0.0214214 -0.0236887 -0.0264027 -0.0291299 -0.0236887 -0.0256647 -0.0291299 -0.0315041 -7.12549e-05 -7.85584e-05 -0.0102266 -0.0109255 -7.85584e-05 -8.46421e-05 -0.0109255 -0.0114722 -0.0102266 -0.0109255 -0.0186802 -0.019912 -0.0109255 -0.0114722 -0.019912 -0.0208699 -8.46421e-05 -8.93267e-05 -0.0114722 -0.0118525 -8.93267e-05 -9.24096e-05 -0.0118525 -0.012054 -0.0114722 -0.0118525 -0.0208699 -0.0215294 -0.0118525 -0.012054 -0.0215294 -0.0218693 -0.0186802 -0.019912 -0.0256647 -0.0273071 -0.019912 -0.0208699 -0.0273071 -0.0285789 -0.0256647 -0.0273071 -0.0315041 -0.0334749 -0.0273071 -0.0285789 -0.0334749 -0.0349986 -0.0208699 -0.0215294 -0.0285789 -0.0294481 -0.0215294 -0.0218693 -0.0294481 -0.0298872 -0.0285789 -0.0294481 -0.0349986 -0.0360371 -0.0294481 -0.0298872 -0.0360371 -0.0365581 -0.0201356 -0.0233812 -0.0235198 -0.0272329 -0.0233812 -0.0264027 -0.0272329 -0.0306853 -0.0235198 -0.0272329 -0.0265249 -0.0306543 -0.0272329 -0.0306853 -0.0306543 -0.0344912 -0.0264027 -0.0291299 -0.0306853 -0.0337997 -0.0291299 -0.0315041 -0.0337997 -0.0365109 -0.0306853 -0.0337997 -0.0344912 -0.0379535 -0.0337997 -0.0365109 -0.0379535 -0.0409717 -0.0265249 -0.0306543 -0.0293017 -0.0338241 -0.0306543 -0.0344912 -0.0338241 -0.0380268 -0.0293017 -0.0338241 -0.0319911 -0.0369053 -0.0338241 -0.0380268 -0.0369053 -0.041477 -0.0344912 -0.0379535 -0.0380268 -0.0418247 -0.0379535 -0.0409717 -0.0418247 -0.0451452 -0.0380268 -0.0418247 -0.041477 -0.0456189 -0.0418247 -0.0451452 -0.0456189 -0.0492567 -0.0315041 -0.0334749 -0.0365109 -0.0387627 -0.0334749 -0.0349986 -0.0387627 -0.0405061 -0.0365109 -0.0387627 -0.0409717 -0.0434854 -0.0387627 -0.0405061 -0.0434854 -0.0454411 -0.0349986 -0.0360371 -0.0405061 -0.0416981 -0.0360371 -0.0365581 -0.0416981 -0.0423018 -0.0405061 -0.0416981 -0.0454411 -0.046791 -0.0416981 -0.0423018 -0.046791 -0.0474932 -0.0409717 -0.0434854 -0.0451452 -0.0479247 -0.0434854 -0.0454411 -0.0479247 -0.0501054 -0.0451452 -0.0479247 -0.0492567 -0.052324 -0.0479247 -0.0501054 -0.052324 -0.0547596 -0.0454411 -0.046791 -0.0501054 -0.051635 -0.046791 -0.0474932 -0.051635 -0.0524653 -0.0501054 -0.051635 -0.0547596 -0.0565054 -0.051635 -0.0524653 -0.0565054 -0.0575064 -0.000216986 -0.000915497 3.65507e-05 -0.00103126 -0.000915497 -0.00339783 -0.00103126 -0.00368947 3.65507e-05 -0.00103126 0.00038416 -0.00116396 -0.00103126 -0.00368947 -0.00116396 -0.00399406 -0.00339783 -0.00701736 -0.00368947 -0.00763861 -0.00701736 -0.0114474 -0.00763861 -0.0124544 -0.00368947 -0.00763861 -0.00399406 -0.00829183 -0.00763861 -0.0124544 -0.00829183 -0.013512 0.00038416 -0.00116396 0.000832085 -0.00131847 -0.00116396 -0.00399406 -0.00131847 -0.00432533 0.000832085 -0.00131847 0.00138782 -0.00149925 -0.00131847 -0.00432533 -0.00149925 -0.00469512 -0.00399406 -0.00829183 -0.00432533 -0.00900421 -0.00829183 -0.013512 -0.00900421 -0.0146612 -0.00432533 -0.00900421 -0.00469512 -0.00979931 -0.00900421 -0.0146612 -0.00979931 -0.0159378 -0.0114474 -0.0163853 -0.0124544 -0.0178163 -0.0163853 -0.0215839 -0.0178163 -0.0234521 -0.0124544 -0.0178163 -0.013512 -0.0193192 -0.0178163 -0.0234521 -0.0193192 -0.025415 -0.0215839 -0.0268403 -0.0234521 -0.0291439 -0.0268403 -0.0319911 -0.0291439 -0.0347184 -0.0234521 -0.0291439 -0.025415 -0.0315659 -0.0291439 -0.0347184 -0.0315659 -0.0375896 -0.013512 -0.0193192 -0.0146612 -0.0209487 -0.0193192 -0.025415 -0.0209487 -0.0275392 -0.0146612 -0.0209487 -0.0159378 -0.0227513 -0.0209487 -0.0275392 -0.0227513 -0.0298804 -0.025415 -0.0315659 -0.0275392 -0.0341837 -0.0315659 -0.0375896 -0.0341837 -0.0406905 -0.0275392 -0.0341837 -0.0298804 -0.0370595 -0.0341837 -0.0406905 -0.0370595 -0.0440884 0.00138782 -0.00149925 0.00206036 -0.00171074 -0.00149925 -0.00469512 -0.00171074 -0.00511433 0.00206036 -0.00171074 0.0028605 -0.00195774 -0.00171074 -0.00511433 -0.00195774 -0.00559411 -0.00469512 -0.00979931 -0.00511433 -0.0106987 -0.00979931 -0.0159378 -0.0106987 -0.0173736 -0.00511433 -0.0106987 -0.00559411 -0.0117241 -0.0106987 -0.0173736 -0.0117241 -0.0189997 0.0028605 -0.00195774 0.00380119 -0.00224594 -0.00195774 -0.00559411 -0.00224594 -0.0061472 0.00380119 -0.00224594 0.00489799 -0.00258247 -0.00224594 -0.0061472 -0.00258247 -0.00678936 -0.00559411 -0.0117241 -0.0061472 -0.0128994 -0.0117241 -0.0189997 -0.0128994 -0.0208491 -0.0061472 -0.0128994 -0.00678936 -0.0142534 -0.0128994 -0.0208491 -0.0142534 -0.0229593 -0.0159378 -0.0227513 -0.0173736 -0.0247677 -0.0227513 -0.0298804 -0.0247677 -0.0324854 -0.0173736 -0.0247677 -0.0189997 -0.0270359 -0.0247677 -0.0324854 -0.0270359 -0.0353955 -0.0298804 -0.0370595 -0.0324854 -0.0402437 -0.0370595 -0.0440884 -0.0402437 -0.0478344 -0.0324854 -0.0402437 -0.0353955 -0.0437771 -0.0402437 -0.0478344 -0.0437771 -0.0519652 -0.0189997 -0.0270359 -0.0208491 -0.0295939 -0.0270359 -0.0353955 -0.0295939 -0.0386489 -0.0208491 -0.0295939 -0.0229593 -0.0324826 -0.0295939 -0.0386489 -0.0324826 -0.0422826 -0.0353955 -0.0437771 -0.0386489 -0.0476929 -0.0437771 -0.0519652 -0.0476929 -0.0565047 -0.0386489 -0.0476929 -0.0422826 -0.0520176 -0.0476929 -0.0565047 -0.0520176 -0.0614623 -0.0319911 -0.0369053 -0.0347184 -0.0400397 -0.0369053 -0.041477 -0.0400397 -0.0449996 -0.0347184 -0.0400397 -0.0375896 -0.0433454 -0.0400397 -0.0449996 -0.0433454 -0.0487239 -0.041477 -0.0456189 -0.0449996 -0.0495098 -0.0456189 -0.0492567 -0.0495098 -0.0534948 -0.0449996 -0.0495098 -0.0487239 -0.0536372 -0.0495098 -0.0534948 -0.0536372 -0.0580102 -0.0375896 -0.0433454 -0.0406905 -0.0469157 -0.0433454 -0.0487239 -0.0469157 -0.0527502 -0.0406905 -0.0469157 -0.0440884 -0.0508212 -0.0469157 -0.0527502 -0.0508212 -0.0571509 -0.0487239 -0.0536372 -0.0527502 -0.0581079 -0.0536372 -0.0580102 -0.0581079 -0.062916 -0.0527502 -0.0581079 -0.0571509 -0.0629959 -0.0581079 -0.062916 -0.0629959 -0.0682884 -0.0492567 -0.052324 -0.0534948 -0.0568866 -0.052324 -0.0547596 -0.0568866 -0.0596205 -0.0534948 -0.0568866 -0.0580102 -0.0617741 -0.0568866 -0.0596205 -0.0617741 -0.0648613 -0.0547596 -0.0565054 -0.0596205 -0.0616328 -0.0565054 -0.0575064 -0.0616328 -0.06286 -0.0596205 -0.0616328 -0.0648613 -0.0672025 -0.0616328 -0.06286 -0.0672025 -0.068725 -0.0580102 -0.0617741 -0.062916 -0.0671068 -0.0617741 -0.0648613 -0.0671068 -0.0706113 -0.062916 -0.0671068 -0.0682884 -0.0729643 -0.0671068 -0.0706113 -0.0729643 -0.0769558 -0.0648613 -0.0672025 -0.0706113 -0.0733553 -0.0672025 -0.068725 -0.0733553 -0.0752561 -0.0706113 -0.0733553 -0.0769558 -0.0801854 -0.0733553 -0.0752561 -0.0801854 -0.0825616 -0.0440884 -0.0508212 -0.0478344 -0.0551114 -0.0508212 -0.0571509 -0.0551114 -0.0619725 -0.0478344 -0.0551114 -0.0519652 -0.0598161 -0.0551114 -0.0619725 -0.0598161 -0.0672361 -0.0571509 -0.0629959 -0.0619725 -0.0683441 -0.0629959 -0.0682884 -0.0683441 -0.0741667 -0.0619725 -0.0683441 -0.0672361 -0.074163 -0.0683441 -0.0741667 -0.074163 -0.0805509 -0.0519652 -0.0598161 -0.0565047 -0.0649458 -0.0598161 -0.0672361 -0.0649458 -0.0729351 -0.0565047 -0.0649458 -0.0614623 -0.0704877 -0.0649458 -0.0729351 -0.0704877 -0.0790304 -0.0672361 -0.074163 -0.0729351 -0.0804274 -0.074163 -0.0805509 -0.0804274 -0.0873954 -0.0729351 -0.0804274 -0.0790304 -0.0870676 -0.0804274 -0.0873954 -0.0870676 -0.0945971 -0.0682884 -0.0729643 -0.0741667 -0.0793839 -0.0729643 -0.0769558 -0.0793839 -0.0839327 -0.0741667 -0.0793839 -0.0805509 -0.0863559 -0.0793839 -0.0839327 -0.0863559 -0.0915256 -0.0769558 -0.0801854 -0.0839327 -0.0877361 -0.0801854 -0.0825616 -0.0877361 -0.0906963 -0.0839327 -0.0877361 -0.0915256 -0.0959885 -0.0877361 -0.0906963 -0.0959885 -0.0996457 -0.0805509 -0.0863559 -0.0873954 -0.0938144 -0.0863559 -0.0915256 -0.0938144 -0.0996492 -0.0873954 -0.0938144 -0.0945971 -0.101621 -0.0938144 -0.0996492 -0.101621 -0.108128 -0.0915256 -0.0959885 -0.0996492 -0.104842 -0.0959885 -0.0996457 -0.104842 -0.1093 -0.0996492 -0.104842 -0.108128 -0.114086 -0.104842 -0.1093 -0.114086 -0.119418 -9.24096e-05 -9.36789e-05 -0.012054 -0.012066 -9.36789e-05 -9.2932e-05 -0.012066 -0.0118808 -0.012054 -0.012066 -0.0218693 -0.0218723 -0.012066 -0.0118808 -0.0218723 -0.0215264 -9.2932e-05 -8.99967e-05 -0.0118808 -0.0114945 -8.99967e-05 -8.47486e-05 -0.0114945 -0.0109079 -0.0118808 -0.0114945 -0.0215264 -0.0208265 -0.0114945 -0.0109079 -0.0208265 -0.0197761 -0.0218693 -0.0218723 -0.0298872 -0.0298746 -0.0218723 -0.0215264 -0.0298746 -0.0293956 -0.0298872 -0.0298746 -0.0365581 -0.0365362 -0.0298746 -0.0293956 -0.0365362 -0.0359541 -0.0215264 -0.0208265 -0.0293956 -0.0284447 -0.0208265 -0.0197761 -0.0284447 -0.0270282 -0.0293956 -0.0284447 -0.0359541 -0.0348057 -0.0284447 -0.0270282 -0.0348057 -0.0330984 -8.47486e-05 -7.71364e-05 -0.0109079 -0.0101286 -7.71364e-05 -6.7217e-05 -0.0101286 -0.00917172 -0.0109079 -0.0101286 -0.0197761 -0.0183901 -0.0101286 -0.00917172 -0.0183901 -0.0166965 -6.7217e-05 -5.5181e-05 -0.00917172 -0.0080617 -5.5181e-05 -4.13807e-05 -0.0080617 -0.00683353 -0.00917172 -0.0080617 -0.0166965 -0.0147389 -0.0080617 -0.00683353 -0.0147389 -0.0125786 -0.0197761 -0.0183901 -0.0270282 -0.0251667 -0.0183901 -0.0166965 -0.0251667 -0.0228985 -0.0270282 -0.0251667 -0.0330984 -0.0308571 -0.0251667 -0.0228985 -0.0308571 -0.028127 -0.0166965 -0.0147389 -0.0228985 -0.0202815 -0.0147389 -0.0125786 -0.0202815 -0.0173962 -0.0228985 -0.0202815 -0.028127 -0.0249768 -0.0202815 -0.0173962 -0.0249768 -0.0215008 -0.0365581 -0.0365362 -0.0423018 -0.0422874 -0.0365362 -0.0359541 -0.0422874 -0.0416344 -0.0423018 -0.0422874 -0.0474932 -0.0475128 -0.0422874 -0.0416344 -0.0475128 -0.0468242 -0.0359541 -0.0348057 -0.0416344 -0.0403344 -0.0348057 -0.0330984 -0.0403344 -0.0383944 -0.0416344 -0.0403344 -0.0468242 -0.0454143 -0.0403344 -0.0383944 -0.0454143 -0.043287 -0.0474932 -0.0475128 -0.0524653 -0.0525548 -0.0475128 -0.0468242 -0.0525548 -0.0518704 -0.0524653 -0.0525548 -0.0575064 -0.0577122 -0.0525548 -0.0518704 -0.0577122 -0.0570791 -0.0468242 -0.0454143 -0.0518704 -0.0503915 -0.0454143 -0.043287 -0.0503915 -0.0481155 -0.0518704 -0.0503915 -0.0570791 -0.0555757 -0.0503915 -0.0481155 -0.0555757 -0.0531884 -0.0330984 -0.0308571 -0.0383944 -0.0358405 -0.0308571 -0.028127 -0.0358405 -0.0327224 -0.0383944 -0.0358405 -0.043287 -0.0404671 -0.0358405 -0.0327224 -0.0404671 -0.0370062 -0.028127 -0.0249768 -0.0327224 -0.0291165 -0.0249768 -0.0215008 -0.0291165 -0.0251283 -0.0327224 -0.0291165 -0.0370062 -0.0329859 -0.0291165 -0.0251283 -0.0329859 -0.0285216 -0.043287 -0.0404671 -0.0481155 -0.0450627 -0.0404671 -0.0370062 -0.0450627 -0.0412833 -0.0481155 -0.0450627 -0.0531884 -0.0499292 -0.0450627 -0.0412833 -0.0499292 -0.0458433 -0.0370062 -0.0329859 -0.0412833 -0.0368628 -0.0329859 -0.0285216 -0.0368628 -0.0319256 -0.0412833 -0.0368628 -0.0458433 -0.0410175 -0.0368628 -0.0319256 -0.0410175 -0.0355853 -4.13807e-05 -2.63474e-05 -0.00683353 -0.00553374 -2.63474e-05 -1.09061e-05 -0.00553374 -0.00422041 -0.00683353 -0.00553374 -0.0125786 -0.0102954 -0.00553374 -0.00422041 -0.0102954 -0.00798759 -1.09061e-05 4.12215e-06 -0.00422041 -0.00296485 4.12215e-06 1.59994e-05 -0.00296485 -0.00183757 -0.00422041 -0.00296485 -0.00798759 -0.00577152 -0.00296485 -0.00183757 -0.00577152 -0.00376383 -0.0125786 -0.0102954 -0.0173962 -0.014346 -0.0102954 -0.00798759 -0.014346 -0.0112561 -0.0173962 -0.014346 -0.0215008 -0.0178201 -0.014346 -0.0112561 -0.0178201 -0.0140799 -0.00798759 -0.00577152 -0.0112561 -0.00827243 -0.00577152 -0.00376383 -0.00827243 -0.00554153 -0.0112561 -0.00827243 -0.0140799 -0.0104483 -0.00827243 -0.00554153 -0.0104483 -0.00709544 1.59994e-05 2.42288e-05 -0.00183757 -0.000965731 2.42288e-05 5.22813e-05 -0.000965731 -0.000159773 -0.00183757 -0.000965731 -0.00376383 -0.00214216 -0.000965731 -0.000159773 -0.00214216 -0.000725019 5.22813e-05 -8.81838e-06 -0.000159773 -0.000821273 -8.81838e-06 0.00680389 -0.000821273 0.00603723 -0.000159773 -0.000821273 -0.000725019 -0.00101963 -0.000821273 0.00603723 -0.00101963 0.00626219 -0.00376383 -0.00214216 -0.00554153 -0.00326926 -0.00214216 -0.000725019 -0.00326926 -0.0013046 -0.00554153 -0.00326926 -0.00709544 -0.00425177 -0.00326926 -0.0013046 -0.00425177 -0.00180463 -0.000725019 -0.00101963 -0.0013046 -0.00119506 -0.00101963 0.00626219 -0.00119506 0.00608381 -0.0013046 -0.00119506 -0.00180463 -0.00132319 -0.00119506 0.00608381 -0.00132319 0.00593604 -0.0215008 -0.0178201 -0.0251283 -0.0208934 -0.0178201 -0.0140799 -0.0208934 -0.0165751 -0.0251283 -0.0208934 -0.0285216 -0.0237632 -0.0208934 -0.0165751 -0.0237632 -0.0188929 -0.0140799 -0.0104483 -0.0165751 -0.012362 -0.0104483 -0.00709544 -0.012362 -0.0084481 -0.0165751 -0.012362 -0.0188929 -0.0141225 -0.012362 -0.0084481 -0.0141225 -0.00967333 -0.0285216 -0.0237632 -0.0319256 -0.0266374 -0.0237632 -0.0188929 -0.0266374 -0.0212025 -0.0319256 -0.0266374 -0.0355853 -0.0297298 -0.0266374 -0.0212025 -0.0297298 -0.0236823 -0.0188929 -0.0141225 -0.0212025 -0.0158606 -0.0141225 -0.00967333 -0.0158606 -0.0108662 -0.0212025 -0.0158606 -0.0236823 -0.0177174 -0.0158606 -0.0108662 -0.0177174 -0.0121299 -0.00709544 -0.00425177 -0.0084481 -0.0050911 -0.00425177 -0.00180463 -0.0050911 -0.00221754 -0.0084481 -0.0050911 -0.00967333 -0.00583459 -0.0050911 -0.00221754 -0.00583459 -0.00257134 -0.00180463 -0.00132319 -0.00221754 -0.00142397 -0.00132319 0.00593604 -0.00142397 0.00583496 -0.00221754 -0.00142397 -0.00257134 -0.00151142 -0.00142397 0.00583496 -0.00151142 0.00578032 -0.00967333 -0.00583459 -0.0108662 -0.00654512 -0.00583459 -0.00257134 -0.00654512 -0.00290011 -0.0108662 -0.00654512 -0.0121299 -0.00728953 -0.00654512 -0.00290011 -0.00728953 -0.00323843 -0.00257134 -0.00151142 -0.00290011 -0.0015963 -0.00151142 0.00578032 -0.0015963 0.00577502 -0.00290011 -0.0015963 -0.00323843 -0.00168893 -0.0015963 0.00577502 -0.00168893 0.00581697 -0.0575064 -0.0577122 -0.06286 -0.0632405 -0.0577122 -0.0570791 -0.0632405 -0.062717 -0.06286 -0.0632405 -0.068725 -0.0693535 -0.0632405 -0.062717 -0.0693535 -0.0690134 -0.0570791 -0.0555757 -0.062717 -0.0612425 -0.0555757 -0.0531884 -0.0612425 -0.0587875 -0.062717 -0.0612425 -0.0690134 -0.0676369 -0.0612425 -0.0587875 -0.0676369 -0.0651721 -0.068725 -0.0693535 -0.0752561 -0.0762234 -0.0693535 -0.0690134 -0.0762234 -0.0761613 -0.0752561 -0.0762234 -0.0825616 -0.083978 -0.0762234 -0.0761613 -0.083978 -0.0843142 -0.0690134 -0.0676369 -0.0761613 -0.0749753 -0.0676369 -0.0651721 -0.0749753 -0.0725829 -0.0761613 -0.0749753 -0.0843142 -0.0834428 -0.0749753 -0.0725829 -0.0834428 -0.081241 -0.0531884 -0.0499292 -0.0587875 -0.0553498 -0.0499292 -0.0458433 -0.0553498 -0.0509651 -0.0587875 -0.0553498 -0.0651721 -0.0615951 -0.0553498 -0.0509651 -0.0615951 -0.0569247 -0.0458433 -0.0410175 -0.0509651 -0.0457177 -0.0410175 -0.0355853 -0.0457177 -0.0397489 -0.0509651 -0.0457177 -0.0569247 -0.0512371 -0.0457177 -0.0397489 -0.0512371 -0.0446784 -0.0651721 -0.0615951 -0.0725829 -0.0689287 -0.0615951 -0.0569247 -0.0689287 -0.064004 -0.0725829 -0.0689287 -0.081241 -0.0776089 -0.0689287 -0.064004 -0.0776089 -0.0724951 -0.0569247 -0.0512371 -0.064004 -0.057867 -0.0512371 -0.0446784 -0.057867 -0.0506622 -0.064004 -0.057867 -0.0724951 -0.0659246 -0.057867 -0.0506622 -0.0659246 -0.0580279 -0.0825616 -0.083978 -0.0906963 -0.0926914 -0.083978 -0.0843142 -0.0926914 -0.0935749 -0.0906963 -0.0926914 -0.0996457 -0.102363 -0.0926914 -0.0935749 -0.102363 -0.10397 -0.0843142 -0.0834428 -0.0935749 -0.0931805 -0.0834428 -0.081241 -0.0931805 -0.0913344 -0.0935749 -0.0931805 -0.10397 -0.104255 -0.0931805 -0.0913344 -0.104255 -0.102985 -0.0996457 -0.102363 -0.1093 -0.112886 -0.102363 -0.10397 -0.112886 -0.115405 -0.1093 -0.112886 -0.119418 -0.123993 -0.112886 -0.115405 -0.123993 -0.127606 -0.10397 -0.104255 -0.115405 -0.116608 -0.104255 -0.102985 -0.116608 -0.116189 -0.115405 -0.116608 -0.127606 -0.129972 -0.116608 -0.116189 -0.129972 -0.130716 -0.081241 -0.0776089 -0.0913344 -0.0878767 -0.0776089 -0.0724951 -0.0878767 -0.0826922 -0.0913344 -0.0878767 -0.102985 -0.0999217 -0.0878767 -0.0826922 -0.0999217 -0.0948596 -0.0724951 -0.0659246 -0.0826922 -0.07575 -0.0659246 -0.0580279 -0.07575 -0.0671457 -0.0826922 -0.07575 -0.0948596 -0.08768 -0.07575 -0.0671457 -0.08768 -0.0784104 -0.102985 -0.0999217 -0.116189 -0.113815 -0.0999217 -0.0948596 -0.113815 -0.109162 -0.116189 -0.113815 -0.130716 -0.129397 -0.113815 -0.109162 -0.129397 -0.125541 -0.0948596 -0.08768 -0.109162 -0.101981 -0.0