# vtk DataFile Version 3.0
#This file was generated by the deal.II library on 2026/1/5 at 14:19:38
ASCII
DATASET UNSTRUCTURED_GRID

POINTS 4096 double
0 0 0
0.03125 0 0
0 0.03125 0
0.03125 0.03125 0
0.03125 0 0
0.0625 0 0
0.03125 0.03125 0
0.0625 0.03125 0
0 0.03125 0
0.03125 0.03125 0
0 0.0625 0
0.03125 0.0625 0
0.03125 0.03125 0
0.0625 0.03125 0
0.03125 0.0625 0
0.0625 0.0625 0
0.0625 0 0
0.09375 0 0
0.0625 0.03125 0
0.09375 0.03125 0
0.09375 0 0
0.125 0 0
0.09375 0.03125 0
0.125 0.03125 0
0.0625 0.03125 0
0.09375 0.03125 0
0.0625 0.0625 0
0.09375 0.0625 0
0.09375 0.03125 0
0.125 0.03125 0
0.09375 0.0625 0
0.125 0.0625 0
0 0.0625 0
0.03125 0.0625 0
0 0.09375 0
0.03125 0.09375 0
0.03125 0.0625 0
0.0625 0.0625 0
0.03125 0.09375 0
0.0625 0.09375 0
0 0.09375 0
0.03125 0.09375 0
0 0.125 0
0.03125 0.125 0
0.03125 0.09375 0
0.0625 0.09375 0
0.03125 0.125 0
0.0625 0.125 0
0.0625 0.0625 0
0.09375 0.0625 0
0.0625 0.09375 0
0.09375 0.09375 0
0.09375 0.0625 0
0.125 0.0625 0
0.09375 0.09375 0
0.125 0.09375 0
0.0625 0.09375 0
0.09375 0.09375 0
0.0625 0.125 0
0.09375 0.125 0
0.09375 0.09375 0
0.125 0.09375 0
0.09375 0.125 0
0.125 0.125 0
0.125 0 0
0.15625 0 0
0.125 0.03125 0
0.15625 0.03125 0
0.15625 0 0
0.1875 0 0
0.15625 0.03125 0
0.1875 0.03125 0
0.125 0.03125 0
0.15625 0.03125 0
0.125 0.0625 0
0.15625 0.0625 0
0.15625 0.03125 0
0.1875 0.03125 0
0.15625 0.0625 0
0.1875 0.0625 0
0.1875 0 0
0.21875 0 0
0.1875 0.03125 0
0.21875 0.03125 0
0.21875 0 0
0.25 0 0
0.21875 0.03125 0
0.25 0.03125 0
0.1875 0.03125 0
0.21875 0.03125 0
0.1875 0.0625 0
0.21875 0.0625 0
0.21875 0.03125 0
0.25 0.03125 0
0.21875 0.0625 0
0.25 0.0625 0
0.125 0.0625 0
0.15625 0.0625 0
0.125 0.09375 0
0.15625 0.09375 0
0.15625 0.0625 0
0.1875 0.0625 0
0.15625 0.09375 0
0.1875 0.09375 0
0.125 0.09375 0
0.15625 0.09375 0
0.125 0.125 0
0.15625 0.125 0
0.15625 0.09375 0
0.1875 0.09375 0
0.15625 0.125 0
0.1875 0.125 0
0.1875 0.0625 0
0.21875 0.0625 0
0.1875 0.09375 0
0.21875 0.09375 0
0.21875 0.0625 0
0.25 0.0625 0
0.21875 0.09375 0
0.25 0.09375 0
0.1875 0.09375 0
0.21875 0.09375 0
0.1875 0.125 0
0.21875 0.125 0
0.21875 0.09375 0
0.25 0.09375 0
0.21875 0.125 0
0.25 0.125 0
0 0.125 0
0.03125 0.125 0
0 0.15625 0
0.03125 0.15625 0
0.03125 0.125 0
0.0625 0.125 0
0.03125 0.15625 0
0.0625 0.15625 0
0 0.15625 0
0.03125 0.15625 0
0 0.1875 0
0.03125 0.1875 0
0.03125 0.15625 0
0.0625 0.15625 0
0.03125 0.1875 0
0.0625 0.1875 0
0.0625 0.125 0
0.09375 0.125 0
0.0625 0.15625 0
0.09375 0.15625 0
0.09375 0.125 0
0.125 0.125 0
0.09375 0.15625 0
0.125 0.15625 0
0.0625 0.15625 0
0.09375 0.15625 0
0.0625 0.1875 0
0.09375 0.1875 0
0.09375 0.15625 0
0.125 0.15625 0
0.09375 0.1875 0
0.125 0.1875 0
0 0.1875 0
0.03125 0.1875 0
0 0.21875 0
0.03125 0.21875 0
0.03125 0.1875 0
0.0625 0.1875 0
0.03125 0.21875 0
0.0625 0.21875 0
0 0.21875 0
0.03125 0.21875 0
0 0.25 0
0.03125 0.25 0
0.03125 0.21875 0
0.0625 0.21875 0
0.03125 0.25 0
0.0625 0.25 0
0.0625 0.1875 0
0.09375 0.1875 0
0.0625 0.21875 0
0.09375 0.21875 0
0.09375 0.1875 0
0.125 0.1875 0
0.09375 0.21875 0
0.125 0.21875 0
0.0625 0.21875 0
0.09375 0.21875 0
0.0625 0.25 0
0.09375 0.25 0
0.09375 0.21875 0
0.125 0.21875 0
0.09375 0.25 0
0.125 0.25 0
0.125 0.125 0
0.15625 0.125 0
0.125 0.15625 0
0.15625 0.15625 0
0.15625 0.125 0
0.1875 0.125 0
0.15625 0.15625 0
0.1875 0.15625 0
0.125 0.15625 0
0.15625 0.15625 0
0.125 0.1875 0
0.15625 0.1875 0
0.15625 0.15625 0
0.1875 0.15625 0
0.15625 0.1875 0
0.1875 0.1875 0
0.1875 0.125 0
0.21875 0.125 0
0.1875 0.15625 0
0.21875 0.15625 0
0.21875 0.125 0
0.25 0.125 0
0.21875 0.15625 0
0.25 0.15625 0
0.1875 0.15625 0
0.21875 0.15625 0
0.1875 0.1875 0
0.21875 0.1875 0
0.21875 0.15625 0
0.25 0.15625 0
0.21875 0.1875 0
0.25 0.1875 0
0.125 0.1875 0
0.15625 0.1875 0
0.125 0.21875 0
0.15625 0.21875 0
0.15625 0.1875 0
0.1875 0.1875 0
0.15625 0.21875 0
0.1875 0.21875 0
0.125 0.21875 0
0.15625 0.21875 0
0.125 0.25 0
0.15625 0.25 0
0.15625 0.21875 0
0.1875 0.21875 0
0.15625 0.25 0
0.1875 0.25 0
0.1875 0.1875 0
0.21875 0.1875 0
0.1875 0.21875 0
0.21875 0.21875 0
0.21875 0.1875 0
0.25 0.1875 0
0.21875 0.21875 0
0.25 0.21875 0
0.1875 0.21875 0
0.21875 0.21875 0
0.1875 0.25 0
0.21875 0.25 0
0.21875 0.21875 0
0.25 0.21875 0
0.21875 0.25 0
0.25 0.25 0
0.25 0 0
0.28125 0 0
0.25 0.03125 0
0.28125 0.03125 0
0.28125 0 0
0.3125 0 0
0.28125 0.03125 0
0.3125 0.03125 0
0.25 0.03125 0
0.28125 0.03125 0
0.25 0.0625 0
0.28125 0.0625 0
0.28125 0.03125 0
0.3125 0.03125 0
0.28125 0.0625 0
0.3125 0.0625 0
0.3125 0 0
0.34375 0 0
0.3125 0.03125 0
0.34375 0.03125 0
0.34375 0 0
0.375 0 0
0.34375 0.03125 0
0.375 0.03125 0
0.3125 0.03125 0
0.34375 0.03125 0
0.3125 0.0625 0
0.34375 0.0625 0
0.34375 0.03125 0
0.375 0.03125 0
0.34375 0.0625 0
0.375 0.0625 0
0.25 0.0625 0
0.28125 0.0625 0
0.25 0.09375 0
0.28125 0.09375 0
0.28125 0.0625 0
0.3125 0.0625 0
0.28125 0.09375 0
0.3125 0.09375 0
0.25 0.09375 0
0.28125 0.09375 0
0.25 0.125 0
0.28125 0.125 0
0.28125 0.09375 0
0.3125 0.09375 0
0.28125 0.125 0
0.3125 0.125 0
0.3125 0.0625 0
0.34375 0.0625 0
0.3125 0.09375 0
0.34375 0.09375 0
0.34375 0.0625 0
0.375 0.0625 0
0.34375 0.09375 0
0.375 0.09375 0
0.3125 0.09375 0
0.34375 0.09375 0
0.3125 0.125 0
0.34375 0.125 0
0.34375 0.09375 0
0.375 0.09375 0
0.34375 0.125 0
0.375 0.125 0
0.375 0 0
0.40625 0 0
0.375 0.03125 0
0.40625 0.03125 0
0.40625 0 0
0.4375 0 0
0.40625 0.03125 0
0.4375 0.03125 0
0.375 0.03125 0
0.40625 0.03125 0
0.375 0.0625 0
0.40625 0.0625 0
0.40625 0.03125 0
0.4375 0.03125 0
0.40625 0.0625 0
0.4375 0.0625 0
0.4375 0 0
0.46875 0 0
0.4375 0.03125 0
0.46875 0.03125 0
0.46875 0 0
0.5 0 0
0.46875 0.03125 0
0.5 0.03125 0
0.4375 0.03125 0
0.46875 0.03125 0
0.4375 0.0625 0
0.46875 0.0625 0
0.46875 0.03125 0
0.5 0.03125 0
0.46875 0.0625 0
0.5 0.0625 0
0.375 0.0625 0
0.40625 0.0625 0
0.375 0.09375 0
0.40625 0.09375 0
0.40625 0.0625 0
0.4375 0.0625 0
0.40625 0.09375 0
0.4375 0.09375 0
0.375 0.09375 0
0.40625 0.09375 0
0.375 0.125 0
0.40625 0.125 0
0.40625 0.09375 0
0.4375 0.09375 0
0.40625 0.125 0
0.4375 0.125 0
0.4375 0.0625 0
0.46875 0.0625 0
0.4375 0.09375 0
0.46875 0.09375 0
0.46875 0.0625 0
0.5 0.0625 0
0.46875 0.09375 0
0.5 0.09375 0
0.4375 0.09375 0
0.46875 0.09375 0
0.4375 0.125 0
0.46875 0.125 0
0.46875 0.09375 0
0.5 0.09375 0
0.46875 0.125 0
0.5 0.125 0
0.25 0.125 0
0.28125 0.125 0
0.25 0.15625 0
0.28125 0.15625 0
0.28125 0.125 0
0.3125 0.125 0
0.28125 0.15625 0
0.3125 0.15625 0
0.25 0.15625 0
0.28125 0.15625 0
0.25 0.1875 0
0.28125 0.1875 0
0.28125 0.15625 0
0.3125 0.15625 0
0.28125 0.1875 0
0.3125 0.1875 0
0.3125 0.125 0
0.34375 0.125 0
0.3125 0.15625 0
0.34375 0.15625 0
0.34375 0.125 0
0.375 0.125 0
0.34375 0.15625 0
0.375 0.15625 0
0.3125 0.15625 0
0.34375 0.15625 0
0.3125 0.1875 0
0.34375 0.1875 0
0.34375 0.15625 0
0.375 0.15625 0
0.34375 0.1875 0
0.375 0.1875 0
0.25 0.1875 0
0.28125 0.1875 0
0.25 0.21875 0
0.28125 0.21875 0
0.28125 0.1875 0
0.3125 0.1875 0
0.28125 0.21875 0
0.3125 0.21875 0
0.25 0.21875 0
0.28125 0.21875 0
0.25 0.25 0
0.28125 0.25 0
0.28125 0.21875 0
0.3125 0.21875 0
0.28125 0.25 0
0.3125 0.25 0
0.3125 0.1875 0
0.34375 0.1875 0
0.3125 0.21875 0
0.34375 0.21875 0
0.34375 0.1875 0
0.375 0.1875 0
0.34375 0.21875 0
0.375 0.21875 0
0.3125 0.21875 0
0.34375 0.21875 0
0.3125 0.25 0
0.34375 0.25 0
0.34375 0.21875 0
0.375 0.21875 0
0.34375 0.25 0
0.375 0.25 0
0.375 0.125 0
0.40625 0.125 0
0.375 0.15625 0
0.40625 0.15625 0
0.40625 0.125 0
0.4375 0.125 0
0.40625 0.15625 0
0.4375 0.15625 0
0.375 0.15625 0
0.40625 0.15625 0
0.375 0.1875 0
0.40625 0.1875 0
0.40625 0.15625 0
0.4375 0.15625 0
0.40625 0.1875 0
0.4375 0.1875 0
0.4375 0.125 0
0.46875 0.125 0
0.4375 0.15625 0
0.46875 0.15625 0
0.46875 0.125 0
0.5 0.125 0
0.46875 0.15625 0
0.5 0.15625 0
0.4375 0.15625 0
0.46875 0.15625 0
0.4375 0.1875 0
0.46875 0.1875 0
0.46875 0.15625 0
0.5 0.15625 0
0.46875 0.1875 0
0.5 0.1875 0
0.375 0.1875 0
0.40625 0.1875 0
0.375 0.21875 0
0.40625 0.21875 0
0.40625 0.1875 0
0.4375 0.1875 0
0.40625 0.21875 0
0.4375 0.21875 0
0.375 0.21875 0
0.40625 0.21875 0
0.375 0.25 0
0.40625 0.25 0
0.40625 0.21875 0
0.4375 0.21875 0
0.40625 0.25 0
0.4375 0.25 0
0.4375 0.1875 0
0.46875 0.1875 0
0.4375 0.21875 0
0.46875 0.21875 0
0.46875 0.1875 0
0.5 0.1875 0
0.46875 0.21875 0
0.5 0.21875 0
0.4375 0.21875 0
0.46875 0.21875 0
0.4375 0.25 0
0.46875 0.25 0
0.46875 0.21875 0
0.5 0.21875 0
0.46875 0.25 0
0.5 0.25 0
0 0.25 0
0.03125 0.25 0
0 0.28125 0
0.03125 0.28125 0
0.03125 0.25 0
0.0625 0.25 0
0.03125 0.28125 0
0.0625 0.28125 0
0 0.28125 0
0.03125 0.28125 0
0 0.3125 0
0.03125 0.3125 0
0.03125 0.28125 0
0.0625 0.28125 0
0.03125 0.3125 0
0.0625 0.3125 0
0.0625 0.25 0
0.09375 0.25 0
0.0625 0.28125 0
0.09375 0.28125 0
0.09375 0.25 0
0.125 0.25 0
0.09375 0.28125 0
0.125 0.28125 0
0.0625 0.28125 0
0.09375 0.28125 0
0.0625 0.3125 0
0.09375 0.3125 0
0.09375 0.28125 0
0.125 0.28125 0
0.09375 0.3125 0
0.125 0.3125 0
0 0.3125 0
0.03125 0.3125 0
0 0.34375 0
0.03125 0.34375 0
0.03125 0.3125 0
0.0625 0.3125 0
0.03125 0.34375 0
0.0625 0.34375 0
0 0.34375 0
0.03125 0.34375 0
0 0.375 0
0.03125 0.375 0
0.03125 0.34375 0
0.0625 0.34375 0
0.03125 0.375 0
0.0625 0.375 0
0.0625 0.3125 0
0.09375 0.3125 0
0.0625 0.34375 0
0.09375 0.34375 0
0.09375 0.3125 0
0.125 0.3125 0
0.09375 0.34375 0
0.125 0.34375 0
0.0625 0.34375 0
0.09375 0.34375 0
0.0625 0.375 0
0.09375 0.375 0
0.09375 0.34375 0
0.125 0.34375 0
0.09375 0.375 0
0.125 0.375 0
0.125 0.25 0
0.15625 0.25 0
0.125 0.28125 0
0.15625 0.28125 0
0.15625 0.25 0
0.1875 0.25 0
0.15625 0.28125 0
0.1875 0.28125 0
0.125 0.28125 0
0.15625 0.28125 0
0.125 0.3125 0
0.15625 0.3125 0
0.15625 0.28125 0
0.1875 0.28125 0
0.15625 0.3125 0
0.1875 0.3125 0
0.1875 0.25 0
0.21875 0.25 0
0.1875 0.28125 0
0.21875 0.28125 0
0.21875 0.25 0
0.25 0.25 0
0.21875 0.28125 0
0.25 0.28125 0
0.1875 0.28125 0
0.21875 0.28125 0
0.1875 0.3125 0
0.21875 0.3125 0
0.21875 0.28125 0
0.25 0.28125 0
0.21875 0.3125 0
0.25 0.3125 0
0.125 0.3125 0
0.15625 0.3125 0
0.125 0.34375 0
0.15625 0.34375 0
0.15625 0.3125 0
0.1875 0.3125 0
0.15625 0.34375 0
0.1875 0.34375 0
0.125 0.34375 0
[...]
POINT_DATA 4096
SCALARS u_x double 1
LOOKUP_TABLE default
9.06284e-06 1.43241e-05 -3.31116e-05 -3.80967e-05 1.43241e-05 2.322e-05 -3.80967e-05 -0.000336634 -3.31116e-05 -3.80967e-05 -0.000157982 -0.000198558 -3.80967e-05 -0.000336634 -0.000198558 -0.000909771 2.322e-05 2.19348e-05 -0.000336634 -0.000922998 2.19348e-05 1.40809e-05 -0.000922998 -0.00176398 -0.000336634 -0.000922998 -0.000909771 -0.00206268 -0.000922998 -0.00176398 -0.00206268 -0.00361368 -0.000157982 -0.000198558 -0.000302746 -0.000358776 -0.000198558 -0.000909771 -0.000358776 -0.00148741 -0.000302746 -0.000358776 -0.000419225 -0.000494617 -0.000358776 -0.00148741 -0.000494617 -0.00199298 -0.000909771 -0.00206268 -0.00148741 -0.00317057 -0.00206268 -0.00361368 -0.00317057 -0.0053433 -0.00148741 -0.00317057 -0.00199298 -0.0041509 -0.00317057 -0.0053433 -0.0041509 -0.00687004 1.40809e-05 3.14035e-06 -0.00176398 -0.00278459 3.14035e-06 -8.90514e-06 -0.00278459 -0.00391202 -0.00176398 -0.00278459 -0.00361368 -0.00544913 -0.00278459 -0.00391202 -0.00544913 -0.00745842 -8.90514e-06 -2.10389e-05 -0.00391202 -0.00508372 -2.10389e-05 -3.27399e-05 -0.00508372 -0.00624966 -0.00391202 -0.00508372 -0.00745842 -0.00954053 -0.00508372 -0.00624966 -0.00954053 -0.011611 -0.00361368 -0.00544913 -0.0053433 -0.00785801 -0.00544913 -0.00745842 -0.00785801 -0.0105807 -0.0053433 -0.00785801 -0.00687004 -0.00996668 -0.00785801 -0.0105807 -0.00996668 -0.0132862 -0.00745842 -0.00954053 -0.0105807 -0.0133866 -0.00954053 -0.011611 -0.0133866 -0.0161693 -0.0105807 -0.0133866 -0.0132862 -0.0166869 -0.0133866 -0.0161693 -0.0166869 -0.0200475 -0.000419225 -0.000494617 -0.000481524 -0.000609144 -0.000494617 -0.00199298 -0.000609144 -0.00241686 -0.000481524 -0.000609144 -0.00047532 -0.000711351 -0.000609144 -0.00241686 -0.000711351 -0.00277444 -0.00199298 -0.0041509 -0.00241686 -0.00499084 -0.0041509 -0.00687004 -0.00499084 -0.00819057 -0.00241686 -0.00499084 -0.00277444 -0.00571583 -0.00499084 -0.00819057 -0.00571583 -0.00934392 -0.00047532 -0.000711351 -0.000391903 -0.000810297 -0.000711351 -0.00277444 -0.000810297 -0.0030877 -0.000391903 -0.000810297 -0.000225199 -0.000913952 -0.000810297 -0.0030877 -0.000913952 -0.0033786 -0.00277444 -0.00571583 -0.0030877 -0.00636449 -0.00571583 -0.00934392 -0.00636449 -0.0103863 -0.0030877 -0.00636449 -0.0033786 -0.00697722 -0.00636449 -0.0103863 -0.00697722 -0.0113773 -0.00687004 -0.00996668 -0.00819057 -0.0117964 -0.00996668 -0.0132862 -0.0117964 -0.0156323 -0.00819057 -0.0117964 -0.00934392 -0.0134068 -0.0117964 -0.0156323 -0.0134068 -0.0177056 -0.0132862 -0.0166869 -0.0156323 -0.0195414 -0.0166869 -0.0200475 -0.0195414 -0.023391 -0.0156323 -0.0195414 -0.0177056 -0.0220687 -0.0195414 -0.023391 -0.0220687 -0.0263535 -0.00934392 -0.0134068 -0.0103863 -0.0148741 -0.0134068 -0.0177056 -0.0148741 -0.0196057 -0.0103863 -0.0148741 -0.0113773 -0.0162777 -0.0148741 -0.0196057 -0.0162777 -0.0214323 -0.0177056 -0.0220687 -0.0196057 -0.0243944 -0.0220687 -0.0263535 -0.0243944 -0.029088 -0.0196057 -0.0243944 -0.0214323 -0.0266396 -0.0243944 -0.029088 -0.0266396 -0.0317375 -3.27399e-05 -4.3757e-05 -0.00624966 -0.00737087 -4.3757e-05 -5.39615e-05 -0.00737087 -0.00841711 -0.00624966 -0.00737087 -0.011611 -0.0136018 -0.00737087 -0.00841711 -0.0136018 -0.0154586 -5.39615e-05 -6.32702e-05 -0.00841711 -0.00936436 -6.32702e-05 -7.16058e-05 -0.00936436 -0.0101928 -0.00841711 -0.00936436 -0.0154586 -0.0171375 -0.00936436 -0.0101928 -0.0171375 -0.0186024 -0.011611 -0.0136018 -0.0161693 -0.0188408 -0.0136018 -0.0154586 -0.0188408 -0.0213293 -0.0161693 -0.0188408 -0.0200475 -0.0232667 -0.0188408 -0.0213293 -0.0232667 -0.0262609 -0.0154586 -0.0171375 -0.0213293 -0.0235762 -0.0171375 -0.0186024 -0.0235762 -0.0255331 -0.0213293 -0.0235762 -0.0262609 -0.0289614 -0.0235762 -0.0255331 -0.0289614 -0.0313105 -7.16058e-05 -7.88662e-05 -0.0101928 -0.0108855 -7.88662e-05 -8.49071e-05 -0.0108855 -0.011427 -0.0101928 -0.0108855 -0.0186024 -0.0198225 -0.0108855 -0.011427 -0.0198225 -0.0207707 -8.49071e-05 -8.95527e-05 -0.011427 -0.0118035 -8.95527e-05 -9.26085e-05 -0.0118035 -0.0120029 -0.011427 -0.0118035 -0.0207707 -0.0214232 -0.0118035 -0.0120029 -0.0214232 -0.0217592 -0.0186024 -0.0198225 -0.0255331 -0.0271584 -0.0198225 -0.0207707 -0.0271584 -0.0284163 -0.0255331 -0.0271584 -0.0313105 -0.0332592 -0.0271584 -0.0284163 -0.0332592 -0.0347648 -0.0207707 -0.0214232 -0.0284163 -0.0292755 -0.0214232 -0.0217592 -0.0292755 -0.0297093 -0.0284163 -0.0292755 -0.0347648 -0.0357903 -0.0292755 -0.0297093 -0.0357903 -0.0363044 -0.0200475 -0.0232667 -0.023391 -0.0270706 -0.0232667 -0.0262609 -0.0270706 -0.0304889 -0.023391 -0.0270706 -0.0263535 -0.0304422 -0.0270706 -0.0304889 -0.0304422 -0.0342379 -0.0262609 -0.0289614 -0.0304889 -0.03357 -0.0289614 -0.0313105 -0.03357 -0.0362501 -0.0304889 -0.03357 -0.0342379 -0.0376603 -0.03357 -0.0362501 -0.0376603 -0.0406413 -0.0263535 -0.0304422 -0.029088 -0.0335626 -0.0304422 -0.0342379 -0.0335626 -0.0377172 -0.029088 -0.0335626 -0.0317375 -0.0365967 -0.0335626 -0.0377172 -0.0365967 -0.0411132 -0.0342379 -0.0376603 -0.0377172 -0.0414683 -0.0376603 -0.0406413 -0.0414683 -0.0447451 -0.0377172 -0.0414683 -0.0411132 -0.0452012 -0.0414683 -0.0447451 -0.0452012 -0.0487882 -0.0313105 -0.0332592 -0.0362501 -0.0384746 -0.0332592 -0.0347648 -0.0384746 -0.0401956 -0.0362501 -0.0384746 -0.0406413 -0.0431221 -0.0384746 -0.0401956 -0.0431221 -0.0450506 -0.0347648 -0.0357903 -0.0401956 -0.0413714 -0.0357903 -0.0363044 -0.0413714 -0.041966 -0.0401956 -0.0413714 -0.0450506 -0.0463804 -0.0413714 -0.041966 -0.0463804 -0.0470708 -0.0406413 -0.0431221 -0.0447451 -0.0474854 -0.0431221 -0.0450506 -0.0474854 -0.0496335 -0.0447451 -0.0474854 -0.0487882 -0.0518095 -0.0474854 -0.0496335 -0.0518095 -0.0542057 -0.0450506 -0.0463804 -0.0496335 -0.0511381 -0.0463804 -0.0470708 -0.0511381 -0.0519529 -0.0496335 -0.0511381 -0.0542057 -0.0559205 -0.0511381 -0.0519529 -0.0559205 -0.0569007 -0.000225199 -0.000913952 2.99564e-05 -0.00102905 -0.000913952 -0.0033786 -0.00102905 -0.00366663 2.99564e-05 -0.00102905 0.000378933 -0.00116124 -0.00102905 -0.00366663 -0.00116124 -0.00396829 -0.0033786 -0.00697722 -0.00366663 -0.00759113 -0.00697722 -0.0113773 -0.00759113 -0.0123722 -0.00366663 -0.00759113 -0.00396829 -0.00823832 -0.00759113 -0.0123722 -0.00823832 -0.0134196 0.000378933 -0.00116124 0.00082791 -0.00131541 -0.00116124 -0.00396829 -0.00131541 -0.00429735 0.00082791 -0.00131541 0.00138434 -0.00149601 -0.00131541 -0.00429735 -0.00149601 -0.00466565 -0.00396829 -0.00823832 -0.00429735 -0.00894606 -0.00823832 -0.0134196 -0.00894606 -0.014561 -0.00429735 -0.00894606 -0.00466565 -0.00973794 -0.00894606 -0.014561 -0.00973794 -0.0158319 -0.0113773 -0.0162777 -0.0123722 -0.0176912 -0.0162777 -0.0214323 -0.0176912 -0.0232771 -0.0123722 -0.0176912 -0.0134196 -0.0191792 -0.0176912 -0.0232771 -0.0191792 -0.0252198 -0.0214323 -0.0266396 -0.0232771 -0.0289133 -0.0266396 -0.0317375 -0.0289133 -0.0344284 -0.0232771 -0.0289133 -0.0252198 -0.0313095 -0.0289133 -0.0344284 -0.0313095 -0.0372672 -0.0134196 -0.0191792 -0.014561 -0.0207968 -0.0191792 -0.0252198 -0.0207968 -0.0273275 -0.014561 -0.0207968 -0.0158319 -0.0225906 -0.0207968 -0.0273275 -0.0225906 -0.029656 -0.0252198 -0.0313095 -0.0273275 -0.0339054 -0.0313095 -0.0372672 -0.0339054 -0.0403404 -0.0273275 -0.0339054 -0.029656 -0.0367639 -0.0339054 -0.0403404 -0.0367639 -0.0437156 0.00138434 -0.00149601 0.00205722 -0.00170747 -0.00149601 -0.00466565 -0.00170747 -0.00508413 0.00205722 -0.00170747 0.0028574 -0.00195464 -0.00170747 -0.00508413 -0.00195464 -0.00556402 -0.00466565 -0.00973794 -0.00508413 -0.0106356 -0.00973794 -0.0158319 -0.0106356 -0.0172644 -0.00508413 -0.0106356 -0.00556402 -0.011661 -0.0106356 -0.0172644 -0.011661 -0.0188899 0.0028574 -0.00195464 0.00379788 -0.00224323 -0.00195464 -0.00556402 -0.00224323 -0.00611819 0.00379788 -0.00224323 0.00489429 -0.00258046 -0.00224323 -0.00611819 -0.00258046 -0.00676266 -0.00556402 -0.011661 -0.00611819 -0.0128383 -0.011661 -0.0188899 -0.0128383 -0.0207419 -0.00611819 -0.0128383 -0.00676266 -0.0141967 -0.0128383 -0.0207419 -0.0141967 -0.0228589 -0.0158319 -0.0225906 -0.0172644 -0.0246015 -0.0225906 -0.029656 -0.0246015 -0.0322526 -0.0172644 -0.0246015 -0.0188899 -0.026868 -0.0246015 -0.0322526 -0.026868 -0.0351592 -0.029656 -0.0367639 -0.0322526 -0.039936 -0.0367639 -0.0437156 -0.039936 -0.0474446 -0.0322526 -0.039936 -0.0351592 -0.0434632 -0.039936 -0.0474446 -0.0434632 -0.0515656 -0.0188899 -0.026868 -0.0207419 -0.029429 -0.026868 -0.0351592 -0.029429 -0.0384153 -0.0207419 -0.029429 -0.0228589 -0.0323266 -0.029429 -0.0384153 -0.0323266 -0.0420596 -0.0351592 -0.0434632 -0.0384153 -0.0473806 -0.0434632 -0.0515656 -0.0473806 -0.0561045 -0.0384153 -0.0473806 -0.0420596 -0.051717 -0.0473806 -0.0561045 -0.051717 -0.0610739 -0.0317375 -0.0365967 -0.0344284 -0.0396878 -0.0365967 -0.0411132 -0.0396878 -0.0445851 -0.0344284 -0.0396878 -0.0372672 -0.0429543 -0.0396878 -0.0445851 -0.0429543 -0.0482629 -0.0411132 -0.0452012 -0.0445851 -0.0490338 -0.0452012 -0.0487882 -0.0490338 -0.0529602 -0.0445851 -0.0490338 -0.0482629 -0.0531066 -0.0490338 -0.0529602 -0.0531066 -0.0574123 -0.0372672 -0.0429543 -0.0403404 -0.0464901 -0.0429543 -0.0482629 -0.0464901 -0.0522471 -0.0403404 -0.0464901 -0.0437156 -0.0503665 -0.0464901 -0.0522471 -0.0503665 -0.056611 -0.0482629 -0.0531066 -0.0522471 -0.0575267 -0.0531066 -0.0574123 -0.0575267 -0.0622579 -0.0522471 -0.0575267 -0.056611 -0.0623689 -0.0575267 -0.0622579 -0.0623689 -0.0675739 -0.0487882 -0.0518095 -0.0529602 -0.0562981 -0.0518095 -0.0542057 -0.0562981 -0.0589845 -0.0529602 -0.0562981 -0.0574123 -0.0611129 -0.0562981 -0.0589845 -0.0611129 -0.0641429 -0.0542057 -0.0559205 -0.0589845 -0.0609579 -0.0559205 -0.0569007 -0.0609579 -0.0621569 -0.0589845 -0.0609579 -0.0641429 -0.0664351 -0.0609579 -0.0621569 -0.0664351 -0.0679194 -0.0574123 -0.0611129 -0.0622579 -0.0663746 -0.0611129 -0.0641429 -0.0663746 -0.0698101 -0.0622579 -0.0663746 -0.0675739 -0.0721635 -0.0663746 -0.0698101 -0.0721635 -0.076072 -0.0641429 -0.0664351 -0.0698101 -0.0724923 -0.0664351 -0.0679194 -0.0724923 -0.0743418 -0.0698101 -0.0724923 -0.076072 -0.0792244 -0.0724923 -0.0743418 -0.0792244 -0.0815327 -0.0437156 -0.0503665 -0.0474446 -0.0546337 -0.0503665 -0.056611 -0.0546337 -0.0614023 -0.0474446 -0.0546337 -0.0515656 -0.0593236 -0.0546337 -0.0614023 -0.0593236 -0.0666442 -0.056611 -0.0623689 -0.0614023 -0.0676777 -0.0623689 -0.0675739 -0.0676777 -0.0734016 -0.0614023 -0.0676777 -0.0666442 -0.0734662 -0.0676777 -0.0734016 -0.0734662 -0.0797443 -0.0515656 -0.0593236 -0.0561045 -0.0644492 -0.0593236 -0.0666442 -0.0644492 -0.0723339 -0.0561045 -0.0644492 -0.0610739 -0.0700018 -0.0644492 -0.0723339 -0.0700018 -0.0784372 -0.0666442 -0.0734662 -0.0723339 -0.0797139 -0.0734662 -0.0797443 -0.0797139 -0.0865621 -0.0723339 -0.0797139 -0.0784372 -0.0863574 -0.0797139 -0.0865621 -0.0863574 -0.0937598 -0.0675739 -0.0721635 -0.0734016 -0.0785191 -0.0721635 -0.076072 -0.0785191 -0.0829691 -0.0734016 -0.0785191 -0.0797443 -0.0854358 -0.0785191 -0.0829691 -0.0854358 -0.0904897 -0.076072 -0.0792244 -0.0829691 -0.0866772 -0.0792244 -0.0815327 -0.0866772 -0.089549 -0.0829691 -0.0866772 -0.0904897 -0.0948372 -0.0866772 -0.089549 -0.0948372 -0.0983828 -0.0797443 -0.0854358 -0.0865621 -0.0928544 -0.0854358 -0.0904897 -0.0928544 -0.0985569 -0.0865621 -0.0928544 -0.0937598 -0.100646 -0.0928544 -0.0985569 -0.100646 -0.107007 -0.0904897 -0.0948372 -0.0985569 -0.103614 -0.0948372 -0.0983828 -0.103614 -0.107936 -0.0985569 -0.103614 -0.107007 -0.112811 -0.103614 -0.107936 -0.112811 -0.117983 -9.26085e-05 -9.38681e-05 -0.0120029 -0.0120149 -9.38681e-05 -9.31305e-05 -0.0120149 -0.0118317 -0.0120029 -0.0120149 -0.0217592 -0.0217621 -0.0120149 -0.0118317 -0.0217621 -0.0214201 -9.31305e-05 -9.02253e-05 -0.0118317 -0.0114496 -9.02253e-05 -8.50305e-05 -0.0114496 -0.0108693 -0.0118317 -0.0114496 -0.0214201 -0.020728 -0.0114496 -0.0108693 -0.020728 -0.0196893 -0.0217592 -0.0217621 -0.0297093 -0.0296966 -0.0217621 -0.0214201 -0.0296966 -0.0292231 -0.0297093 -0.0296966 -0.0363044 -0.0362822 -0.0296966 -0.0292231 -0.0362822 -0.0357069 -0.0214201 -0.020728 -0.0292231 -0.0282833 -0.020728 -0.0196893 -0.0282833 -0.0268832 -0.0292231 -0.0282833 -0.0357069 -0.0345725 -0.0282833 -0.0268832 -0.0345725 -0.0328862 -8.50305e-05 -7.74929e-05 -0.0108693 -0.010098 -7.74929e-05 -6.76614e-05 -0.010098 -0.0091503 -0.0108693 -0.010098 -0.0196893 -0.018318 -0.010098 -0.0091503 -0.018318 -0.0166414 -6.76614e-05 -5.57165e-05 -0.0091503 -0.00804996 -5.57165e-05 -4.19974e-05 -0.00804996 -0.00683104 -0.0091503 -0.00804996 -0.0166414 -0.0147018 -0.00804996 -0.00683104 -0.0147018 -0.0125589 -0.0196893 -0.018318 -0.0268832 -0.0250426 -0.018318 -0.0166414 -0.0250426 -0.0227985 -0.0268832 -0.0250426 -0.0328862 -0.0306716 -0.0250426 -0.0227985 -0.0306716 -0.0279727 -0.0166414 -0.0147018 -0.0227985 -0.0202074 -0.0147018 -0.0125589 -0.0202074 -0.0173474 -0.0227985 -0.0202074 -0.0279727 -0.024856 -0.0202074 -0.0173474 -0.024856 -0.0214137 -0.0363044 -0.0362822 -0.041966 -0.0419506 -0.0362822 -0.0357069 -0.0419506 -0.0413054 -0.041966 -0.0419506 -0.0470708 -0.0470881 -0.0419506 -0.0413054 -0.0470881 -0.0464074 -0.0357069 -0.0345725 -0.0413054 -0.040022 -0.0345725 -0.0328862 -0.040022 -0.0381069 -0.0413054 -0.040022 -0.0464074 -0.045016 -0.040022 -0.0381069 -0.045016 -0.0429172 -0.0470708 -0.0470881 -0.0519529 -0.0520376 -0.0470881 -0.0464074 -0.0520376 -0.0513601 -0.0519529 -0.0520376 -0.0569007 -0.0570974 -0.0520376 -0.0513601 -0.0570974 -0.0564687 -0.0464074 -0.045016 -0.0513601 -0.0499005 -0.045016 -0.0429172 -0.0499005 -0.0476558 -0.0513601 -0.0499005 -0.0564687 -0.0549838 -0.0499005 -0.0476558 -0.0549838 -0.0526295 -0.0328862 -0.0306716 -0.0381069 -0.0355855 -0.0306716 -0.0279727 -0.0355855 -0.0325056 -0.0381069 -0.0355855 -0.0429172 -0.0401353 -0.0355855 -0.0325056 -0.0401353 -0.0367196 -0.0279727 -0.024856 -0.0325056 -0.0289414 -0.024856 -0.0214137 -0.0289414 -0.0249957 -0.0325056 -0.0289414 -0.0367196 -0.0327495 -0.0289414 -0.0249957 -0.0327495 -0.0283371 -0.0429172 -0.0401353 -0.0476558 -0.0446458 -0.0401353 -0.0367196 -0.0446458 -0.0409188 -0.0476558 -0.0446458 -0.0526295 -0.049417 -0.0446458 -0.0409188 -0.049417 -0.0453901 -0.0367196 -0.0327495 -0.0409188 -0.0365572 -0.0327495 -0.0283371 -0.0365572 -0.0316823 -0.0409188 -0.0365572 -0.0453901 -0.0406324 -0.0365572 -0.0316823 -0.0406324 -0.0352735 -4.19974e-05 -2.70176e-05 -0.00683104 -0.00553913 -2.70176e-05 -1.15856e-05 -0.00553913 -0.00423145 -0.00683104 -0.00553913 -0.0125589 -0.010291 -0.00553913 -0.00423145 -0.010291 -0.00799487 -1.15856e-05 3.49666e-06 -0.00423145 -0.00297869 3.49666e-06 1.55052e-05 -0.00297869 -0.00185109 -0.00423145 -0.00297869 -0.00799487 -0.00578589 -0.00297869 -0.00185109 -0.00578589 -0.00378022 -0.0125589 -0.010291 -0.0173474 -0.0143201 -0.010291 -0.00799487 -0.0143201 -0.0112487 -0.0173474 -0.0143201 -0.0214137 -0.0177641 -0.0143201 -0.0112487 -0.0177641 -0.0140503 -0.00799487 -0.00578589 -0.0112487 -0.00827786 -0.00578589 -0.00378022 -0.00827786 -0.00555327 -0.0112487 -0.00827786 -0.0140503 -0.0104384 -0.00827786 -0.00555327 -0.0104384 -0.00709763 1.55052e-05 2.39932e-05 -0.00185109 -0.000976664 2.39932e-05 5.25385e-05 -0.000976664 -0.00016541 -0.00185109 -0.000976664 -0.00378022 -0.00215657 -0.000976664 -0.00016541 -0.00215657 -0.00073295 5.25385e-05 -8.80683e-06 -0.00016541 -0.000828939 -8.80683e-06 0.00688498 -0.000828939 0.0061127 -0.00016541 -0.000828939 -0.00073295 -0.00102807 -0.000828939 0.0061127 -0.00102807 0.0063414 -0.00378022 -0.00215657 -0.00555327 -0.00328186 -0.00215657 -0.00073295 -0.00328186 -0.00131213 -0.00555327 -0.00328186 -0.00709763 -0.00425921 -0.00328186 -0.00131213 -0.00425921 -0.00180989 -0.00073295 -0.00102807 -0.00131213 -0.00120373 -0.00102807 0.0063414 -0.00120373 0.00616507 -0.00131213 -0.00120373 -0.00180989 -0.00133158 -0.00120373 0.00616507 -0.00133158 0.00601983 -0.0214137 -0.0177641 -0.0249957 -0.020801 -0.0177641 -0.0140503 -0.020801 -0.0165178 -0.0249957 -0.020801 -0.0283371 -0.0236289 -0.020801 -0.0165178 -0.0236289 -0.0188037 -0.0140503 -0.0104384 -0.0165178 -0.0123326 -0.0104384 -0.00709763 -0.0123326 -0.0084377 -0.0165178 -0.0123326 -0.0188037 -0.0140704 -0.0123326 -0.0084377 -0.0140704 -0.00964835 -0.0283371 -0.0236289 -0.0316823 -0.0264554 -0.0236289 -0.0188037 -0.0264554 -0.0210768 -0.0316823 -0.0264554 -0.0352735 -0.0294919 -0.0264554 -0.0210768 -0.0294919 -0.0235138 -0.0188037 -0.0140704 -0.0210768 -0.0157827 -0.0140704 -0.00964835 -0.0157827 -0.0108248 -0.0210768 -0.0157827 -0.0235138 -0.0176091 -0.0157827 -0.0108248 -0.0176091 -0.0120691 -0.00709763 -0.00425921 -0.0084377 -0.00509151 -0.00425921 -0.00180989 -0.00509151 -0.00221955 -0.0084377 -0.00509151 -0.00964835 -0.00582689 -0.00509151 -0.00221955 -0.00582689 -0.00256969 -0.00180989 -0.00133158 -0.00221955 -0.00143198 -0.00133158 0.00601983 -0.00143198 0.00592218 -0.00221955 -0.00143198 -0.00256969 -0.00151913 -0.00143198 0.00592218 -0.00151913 0.0058719 -0.00964835 -0.00582689 -0.0108248 -0.00652841 -0.00582689 -0.00256969 -0.00652841 -0.00289448 -0.0108248 -0.00652841 -0.0120691 -0.00726241 -0.00652841 -0.00289448 -0.00726241 -0.00322831 -0.00256969 -0.00151913 -0.00289448 -0.00160385 -0.00151913 0.0058719 -0.00160385 0.00587203 -0.00289448 -0.00160385 -0.00322831 -0.0016964 -0.00160385 0.00587203 -0.0016964 0.00592064 -0.0569007 -0.0570974 -0.0621569 -0.062522 -0.0570974 -0.0564687 -0.062522 -0.0619978 -0.0621569 -0.062522 -0.0679194 -0.0685231 -0.062522 -0.0619978 -0.0685231 -0.0681742 -0.0564687 -0.0549838 -0.0619978 -0.0605389 -0.0549838 -0.0526295 -0.0605389 -0.0581165 -0.0619978 -0.0605389 -0.0681742 -0.0668072 -0.0605389 -0.0581165 -0.0668072 -0.0643717 -0.0679194 -0.0685231 -0.0743418 -0.0752713 -0.0685231 -0.0681742 -0.0752713 -0.0751882 -0.0743418 -0.0752713 -0.0815327 -0.0828939 -0.0752713 -0.0751882 -0.0828939 -0.0831921 -0.0681742 -0.0668072 -0.0751882 -0.0740015 -0.0668072 -0.0643717 -0.0740015 -0.0716311 -0.0751882 -0.0740015 -0.0831921 -0.0823044 -0.0740015 -0.0716311 -0.0823044 -0.080112 -0.0526295 -0.049417 -0.0581165 -0.0547282 -0.049417 -0.0453901 -0.0547282 -0.0504083 -0.0581165 -0.0547282 -0.0643717 -0.0608444 -0.0547282 -0.0504083 -0.0608444 -0.0562433 -0.0453901 -0.0406324 -0.0504083 -0.0452381 -0.0406324 -0.0352735 -0.0452381 -0.0393547 -0.0504083 -0.0452381 -0.0562433 -0.0506417 -0.0452381 -0.0393547 -0.0506417 -0.0441812 -0.0643717 -0.0608444 -0.0716311 -0.0680236 -0.0608444 -0.0562433 -0.0680236 -0.0631701 -0.0716311 -0.0680236 -0.080112 -0.0765185 -0.0680236 -0.0631701 -0.0765185 -0.0714739 -0.0562433 -0.0506417 -0.0631701 -0.0571266 -0.0506417 -0.0441812 -0.0571266 -0.0500333 -0.0631701 -0.0571266 -0.0714739 -0.0650022 -0.0571266 -0.0500333 -0.0650022 -0.0572299 -0.0815327 -0.0828939 -0.089549 -0.0914671 -0.0828939 -0.0831921 -0.0914671 -0.0922902 -0.089549 -0.0914671 -0.0983828 -0.100998 -0.0914671 -0.0922902 -0.100998 -0.102515 -0.0831921 -0.0823044 -0.0922902 -0.0918577 -0.0823044 -0.080112 -0.0918577 -0.0900019 -0.0922902 -0.0918577 -0.102515 -0.102735 -0.0918577 -0.0900019 -0.102735 -0.101429 -0.0983828 -0.100998 -0.107936 -0.11139 -0.100998 -0.102515 -0.11139 -0.113789 -0.107936 -0.11139 -0.117983 -0.122398 -0.11139 -0.113789 -0.122398 -0.12586 -0.102515 -0.102735 -0.113789 -0.114892 -0.102735 -0.101429 -0.114892 -0.114403 -0.113789 -0.114892 -0.12586 -0.128089 -0.114892 -0.114403 -0.128089 -0.128727 -0.080112 -0.0765185 -0.0900019 -0.0865682 -0.0765185 -0.0714739 -0.0865682 -0.0814452 -0.0900019 -0.0865682 -0.101429 -0.0983669 -0.0865682 -0.0814452 -0.0983669 -0.0933512 -0.0714739 -0.0650022 -0.0814452 -0.074603 -0.0650022 -0.0572299 -0.074603 -0.0661344 -0.0814452 -0.074603 -0.0933512 -0.0862666 -0.074603 -0.0661344 -0.0862666 -0.0771401 -0.101429 -0.0983669 -0.114403 -0.112001 -0.0983669 -0.0933512 -0.112001 -0.107371 -0.114403 -0.112001 -0.128727 -0.127342 -0.112001 -0.107371 -0.127342 -0.123478 -0.0933512 -0.0862666 -0.107371 -0.100272 -0