# vtk DataFile Version 3.0
#This file was generated by the deal.II library on 2026/1/5 at 14:19:29
ASCII
DATASET UNSTRUCTURED_GRID

POINTS 4096 double
0 0 0
0.03125 0 0
0 0.03125 0
0.03125 0.03125 0
0.03125 0 0
0.0625 0 0
0.03125 0.03125 0
0.0625 0.03125 0
0 0.03125 0
0.03125 0.03125 0
0 0.0625 0
0.03125 0.0625 0
0.03125 0.03125 0
0.0625 0.03125 0
0.03125 0.0625 0
0.0625 0.0625 0
0.0625 0 0
0.09375 0 0
0.0625 0.03125 0
0.09375 0.03125 0
0.09375 0 0
0.125 0 0
0.09375 0.03125 0
0.125 0.03125 0
0.0625 0.03125 0
0.09375 0.03125 0
0.0625 0.0625 0
0.09375 0.0625 0
0.09375 0.03125 0
0.125 0.03125 0
0.09375 0.0625 0
0.125 0.0625 0
0 0.0625 0
0.03125 0.0625 0
0 0.09375 0
0.03125 0.09375 0
0.03125 0.0625 0
0.0625 0.0625 0
0.03125 0.09375 0
0.0625 0.09375 0
0 0.09375 0
0.03125 0.09375 0
0 0.125 0
0.03125 0.125 0
0.03125 0.09375 0
0.0625 0.09375 0
0.03125 0.125 0
0.0625 0.125 0
0.0625 0.0625 0
0.09375 0.0625 0
0.0625 0.09375 0
0.09375 0.09375 0
0.09375 0.0625 0
0.125 0.0625 0
0.09375 0.09375 0
0.125 0.09375 0
0.0625 0.09375 0
0.09375 0.09375 0
0.0625 0.125 0
0.09375 0.125 0
0.09375 0.09375 0
0.125 0.09375 0
0.09375 0.125 0
0.125 0.125 0
0.125 0 0
0.15625 0 0
0.125 0.03125 0
0.15625 0.03125 0
0.15625 0 0
0.1875 0 0
0.15625 0.03125 0
0.1875 0.03125 0
0.125 0.03125 0
0.15625 0.03125 0
0.125 0.0625 0
0.15625 0.0625 0
0.15625 0.03125 0
0.1875 0.03125 0
0.15625 0.0625 0
0.1875 0.0625 0
0.1875 0 0
0.21875 0 0
0.1875 0.03125 0
0.21875 0.03125 0
0.21875 0 0
0.25 0 0
0.21875 0.03125 0
0.25 0.03125 0
0.1875 0.03125 0
0.21875 0.03125 0
0.1875 0.0625 0
0.21875 0.0625 0
0.21875 0.03125 0
0.25 0.03125 0
0.21875 0.0625 0
0.25 0.0625 0
0.125 0.0625 0
0.15625 0.0625 0
0.125 0.09375 0
0.15625 0.09375 0
0.15625 0.0625 0
0.1875 0.0625 0
0.15625 0.09375 0
0.1875 0.09375 0
0.125 0.09375 0
0.15625 0.09375 0
0.125 0.125 0
0.15625 0.125 0
0.15625 0.09375 0
0.1875 0.09375 0
0.15625 0.125 0
0.1875 0.125 0
0.1875 0.0625 0
0.21875 0.0625 0
0.1875 0.09375 0
0.21875 0.09375 0
0.21875 0.0625 0
0.25 0.0625 0
0.21875 0.09375 0
0.25 0.09375 0
0.1875 0.09375 0
0.21875 0.09375 0
0.1875 0.125 0
0.21875 0.125 0
0.21875 0.09375 0
0.25 0.09375 0
0.21875 0.125 0
0.25 0.125 0
0 0.125 0
0.03125 0.125 0
0 0.15625 0
0.03125 0.15625 0
0.03125 0.125 0
0.0625 0.125 0
0.03125 0.15625 0
0.0625 0.15625 0
0 0.15625 0
0.03125 0.15625 0
0 0.1875 0
0.03125 0.1875 0
0.03125 0.15625 0
0.0625 0.15625 0
0.03125 0.1875 0
0.0625 0.1875 0
0.0625 0.125 0
0.09375 0.125 0
0.0625 0.15625 0
0.09375 0.15625 0
0.09375 0.125 0
0.125 0.125 0
0.09375 0.15625 0
0.125 0.15625 0
0.0625 0.15625 0
0.09375 0.15625 0
0.0625 0.1875 0
0.09375 0.1875 0
0.09375 0.15625 0
0.125 0.15625 0
0.09375 0.1875 0
0.125 0.1875 0
0 0.1875 0
0.03125 0.1875 0
0 0.21875 0
0.03125 0.21875 0
0.03125 0.1875 0
0.0625 0.1875 0
0.03125 0.21875 0
0.0625 0.21875 0
0 0.21875 0
0.03125 0.21875 0
0 0.25 0
0.03125 0.25 0
0.03125 0.21875 0
0.0625 0.21875 0
0.03125 0.25 0
0.0625 0.25 0
0.0625 0.1875 0
0.09375 0.1875 0
0.0625 0.21875 0
0.09375 0.21875 0
0.09375 0.1875 0
0.125 0.1875 0
0.09375 0.21875 0
0.125 0.21875 0
0.0625 0.21875 0
0.09375 0.21875 0
0.0625 0.25 0
0.09375 0.25 0
0.09375 0.21875 0
0.125 0.21875 0
0.09375 0.25 0
0.125 0.25 0
0.125 0.125 0
0.15625 0.125 0
0.125 0.15625 0
0.15625 0.15625 0
0.15625 0.125 0
0.1875 0.125 0
0.15625 0.15625 0
0.1875 0.15625 0
0.125 0.15625 0
0.15625 0.15625 0
0.125 0.1875 0
0.15625 0.1875 0
0.15625 0.15625 0
0.1875 0.15625 0
0.15625 0.1875 0
0.1875 0.1875 0
0.1875 0.125 0
0.21875 0.125 0
0.1875 0.15625 0
0.21875 0.15625 0
0.21875 0.125 0
0.25 0.125 0
0.21875 0.15625 0
0.25 0.15625 0
0.1875 0.15625 0
0.21875 0.15625 0
0.1875 0.1875 0
0.21875 0.1875 0
0.21875 0.15625 0
0.25 0.15625 0
0.21875 0.1875 0
0.25 0.1875 0
0.125 0.1875 0
0.15625 0.1875 0
0.125 0.21875 0
0.15625 0.21875 0
0.15625 0.1875 0
0.1875 0.1875 0
0.15625 0.21875 0
0.1875 0.21875 0
0.125 0.21875 0
0.15625 0.21875 0
0.125 0.25 0
0.15625 0.25 0
0.15625 0.21875 0
0.1875 0.21875 0
0.15625 0.25 0
0.1875 0.25 0
0.1875 0.1875 0
0.21875 0.1875 0
0.1875 0.21875 0
0.21875 0.21875 0
0.21875 0.1875 0
0.25 0.1875 0
0.21875 0.21875 0
0.25 0.21875 0
0.1875 0.21875 0
0.21875 0.21875 0
0.1875 0.25 0
0.21875 0.25 0
0.21875 0.21875 0
0.25 0.21875 0
0.21875 0.25 0
0.25 0.25 0
0.25 0 0
0.28125 0 0
0.25 0.03125 0
0.28125 0.03125 0
0.28125 0 0
0.3125 0 0
0.28125 0.03125 0
0.3125 0.03125 0
0.25 0.03125 0
0.28125 0.03125 0
0.25 0.0625 0
0.28125 0.0625 0
0.28125 0.03125 0
0.3125 0.03125 0
0.28125 0.0625 0
0.3125 0.0625 0
0.3125 0 0
0.34375 0 0
0.3125 0.03125 0
0.34375 0.03125 0
0.34375 0 0
0.375 0 0
0.34375 0.03125 0
0.375 0.03125 0
0.3125 0.03125 0
0.34375 0.03125 0
0.3125 0.0625 0
0.34375 0.0625 0
0.34375 0.03125 0
0.375 0.03125 0
0.34375 0.0625 0
0.375 0.0625 0
0.25 0.0625 0
0.28125 0.0625 0
0.25 0.09375 0
0.28125 0.09375 0
0.28125 0.0625 0
0.3125 0.0625 0
0.28125 0.09375 0
0.3125 0.09375 0
0.25 0.09375 0
0.28125 0.09375 0
0.25 0.125 0
0.28125 0.125 0
0.28125 0.09375 0
0.3125 0.09375 0
0.28125 0.125 0
0.3125 0.125 0
0.3125 0.0625 0
0.34375 0.0625 0
0.3125 0.09375 0
0.34375 0.09375 0
0.34375 0.0625 0
0.375 0.0625 0
0.34375 0.09375 0
0.375 0.09375 0
0.3125 0.09375 0
0.34375 0.09375 0
0.3125 0.125 0
0.34375 0.125 0
0.34375 0.09375 0
0.375 0.09375 0
0.34375 0.125 0
0.375 0.125 0
0.375 0 0
0.40625 0 0
0.375 0.03125 0
0.40625 0.03125 0
0.40625 0 0
0.4375 0 0
0.40625 0.03125 0
0.4375 0.03125 0
0.375 0.03125 0
0.40625 0.03125 0
0.375 0.0625 0
0.40625 0.0625 0
0.40625 0.03125 0
0.4375 0.03125 0
0.40625 0.0625 0
0.4375 0.0625 0
0.4375 0 0
0.46875 0 0
0.4375 0.03125 0
0.46875 0.03125 0
0.46875 0 0
0.5 0 0
0.46875 0.03125 0
0.5 0.03125 0
0.4375 0.03125 0
0.46875 0.03125 0
0.4375 0.0625 0
0.46875 0.0625 0
0.46875 0.03125 0
0.5 0.03125 0
0.46875 0.0625 0
0.5 0.0625 0
0.375 0.0625 0
0.40625 0.0625 0
0.375 0.09375 0
0.40625 0.09375 0
0.40625 0.0625 0
0.4375 0.0625 0
0.40625 0.09375 0
0.4375 0.09375 0
0.375 0.09375 0
0.40625 0.09375 0
0.375 0.125 0
0.40625 0.125 0
0.40625 0.09375 0
0.4375 0.09375 0
0.40625 0.125 0
0.4375 0.125 0
0.4375 0.0625 0
0.46875 0.0625 0
0.4375 0.09375 0
0.46875 0.09375 0
0.46875 0.0625 0
0.5 0.0625 0
0.46875 0.09375 0
0.5 0.09375 0
0.4375 0.09375 0
0.46875 0.09375 0
0.4375 0.125 0
0.46875 0.125 0
0.46875 0.09375 0
0.5 0.09375 0
0.46875 0.125 0
0.5 0.125 0
0.25 0.125 0
0.28125 0.125 0
0.25 0.15625 0
0.28125 0.15625 0
0.28125 0.125 0
0.3125 0.125 0
0.28125 0.15625 0
0.3125 0.15625 0
0.25 0.15625 0
0.28125 0.15625 0
0.25 0.1875 0
0.28125 0.1875 0
0.28125 0.15625 0
0.3125 0.15625 0
0.28125 0.1875 0
0.3125 0.1875 0
0.3125 0.125 0
0.34375 0.125 0
0.3125 0.15625 0
0.34375 0.15625 0
0.34375 0.125 0
0.375 0.125 0
0.34375 0.15625 0
0.375 0.15625 0
0.3125 0.15625 0
0.34375 0.15625 0
0.3125 0.1875 0
0.34375 0.1875 0
0.34375 0.15625 0
0.375 0.15625 0
0.34375 0.1875 0
0.375 0.1875 0
0.25 0.1875 0
0.28125 0.1875 0
0.25 0.21875 0
0.28125 0.21875 0
0.28125 0.1875 0
0.3125 0.1875 0
0.28125 0.21875 0
0.3125 0.21875 0
0.25 0.21875 0
0.28125 0.21875 0
0.25 0.25 0
0.28125 0.25 0
0.28125 0.21875 0
0.3125 0.21875 0
0.28125 0.25 0
0.3125 0.25 0
0.3125 0.1875 0
0.34375 0.1875 0
0.3125 0.21875 0
0.34375 0.21875 0
0.34375 0.1875 0
0.375 0.1875 0
0.34375 0.21875 0
0.375 0.21875 0
0.3125 0.21875 0
0.34375 0.21875 0
0.3125 0.25 0
0.34375 0.25 0
0.34375 0.21875 0
0.375 0.21875 0
0.34375 0.25 0
0.375 0.25 0
0.375 0.125 0
0.40625 0.125 0
0.375 0.15625 0
0.40625 0.15625 0
0.40625 0.125 0
0.4375 0.125 0
0.40625 0.15625 0
0.4375 0.15625 0
0.375 0.15625 0
0.40625 0.15625 0
0.375 0.1875 0
0.40625 0.1875 0
0.40625 0.15625 0
0.4375 0.15625 0
0.40625 0.1875 0
0.4375 0.1875 0
0.4375 0.125 0
0.46875 0.125 0
0.4375 0.15625 0
0.46875 0.15625 0
0.46875 0.125 0
0.5 0.125 0
0.46875 0.15625 0
0.5 0.15625 0
0.4375 0.15625 0
0.46875 0.15625 0
0.4375 0.1875 0
0.46875 0.1875 0
0.46875 0.15625 0
0.5 0.15625 0
0.46875 0.1875 0
0.5 0.1875 0
0.375 0.1875 0
0.40625 0.1875 0
0.375 0.21875 0
0.40625 0.21875 0
0.40625 0.1875 0
0.4375 0.1875 0
0.40625 0.21875 0
0.4375 0.21875 0
0.375 0.21875 0
0.40625 0.21875 0
0.375 0.25 0
0.40625 0.25 0
0.40625 0.21875 0
0.4375 0.21875 0
0.40625 0.25 0
0.4375 0.25 0
0.4375 0.1875 0
0.46875 0.1875 0
0.4375 0.21875 0
0.46875 0.21875 0
0.46875 0.1875 0
0.5 0.1875 0
0.46875 0.21875 0
0.5 0.21875 0
0.4375 0.21875 0
0.46875 0.21875 0
0.4375 0.25 0
0.46875 0.25 0
0.46875 0.21875 0
0.5 0.21875 0
0.46875 0.25 0
0.5 0.25 0
0 0.25 0
0.03125 0.25 0
0 0.28125 0
0.03125 0.28125 0
0.03125 0.25 0
0.0625 0.25 0
0.03125 0.28125 0
0.0625 0.28125 0
0 0.28125 0
0.03125 0.28125 0
0 0.3125 0
0.03125 0.3125 0
0.03125 0.28125 0
0.0625 0.28125 0
0.03125 0.3125 0
0.0625 0.3125 0
0.0625 0.25 0
0.09375 0.25 0
0.0625 0.28125 0
0.09375 0.28125 0
0.09375 0.25 0
0.125 0.25 0
0.09375 0.28125 0
0.125 0.28125 0
0.0625 0.28125 0
0.09375 0.28125 0
0.0625 0.3125 0
0.09375 0.3125 0
0.09375 0.28125 0
0.125 0.28125 0
0.09375 0.3125 0
0.125 0.3125 0
0 0.3125 0
0.03125 0.3125 0
0 0.34375 0
0.03125 0.34375 0
0.03125 0.3125 0
0.0625 0.3125 0
0.03125 0.34375 0
0.0625 0.34375 0
0 0.34375 0
0.03125 0.34375 0
0 0.375 0
0.03125 0.375 0
0.03125 0.34375 0
0.0625 0.34375 0
0.03125 0.375 0
0.0625 0.375 0
0.0625 0.3125 0
0.09375 0.3125 0
0.0625 0.34375 0
0.09375 0.34375 0
0.09375 0.3125 0
0.125 0.3125 0
0.09375 0.34375 0
0.125 0.34375 0
0.0625 0.34375 0
0.09375 0.34375 0
0.0625 0.375 0
0.09375 0.375 0
0.09375 0.34375 0
0.125 0.34375 0
0.09375 0.375 0
0.125 0.375 0
0.125 0.25 0
0.15625 0.25 0
0.125 0.28125 0
0.15625 0.28125 0
0.15625 0.25 0
0.1875 0.25 0
0.15625 0.28125 0
0.1875 0.28125 0
0.125 0.28125 0
0.15625 0.28125 0
0.125 0.3125 0
0.15625 0.3125 0
0.15625 0.28125 0
0.1875 0.28125 0
0.15625 0.3125 0
0.1875 0.3125 0
0.1875 0.25 0
0.21875 0.25 0
0.1875 0.28125 0
0.21875 0.28125 0
0.21875 0.25 0
0.25 0.25 0
0.21875 0.28125 0
0.25 0.28125 0
0.1875 0.28125 0
0.21875 0.28125 0
0.1875 0.3125 0
0.21875 0.3125 0
0.21875 0.28125 0
0.25 0.28125 0
0.21875 0.3125 0
0.25 0.3125 0
0.125 0.3125 0
0.15625 0.3125 0
0.125 0.34375 0
0.15625 0.34375 0
0.15625 0.3125 0
0.1875 0.3125 0
0.15625 0.34375 0
0.1875 0.34375 0
0.125 0.34375 0
[...]
POINT_DATA 4096
SCALARS u_x double 1
LOOKUP_TABLE default
1.20237e-05 1.17443e-05 -6.02627e-05 -0.00023112 1.17443e-05 1.15355e-06 -0.00023112 -0.000817025 -6.02627e-05 -0.00023112 -0.000121973 -0.000404585 -0.00023112 -0.000817025 -0.000404585 -0.00132251 1.15355e-06 -2.0356e-05 -0.000817025 -0.00158002 -2.0356e-05 -4.20979e-05 -0.00158002 -0.00239486 -0.000817025 -0.00158002 -0.00132251 -0.00246421 -0.00158002 -0.00239486 -0.00246421 -0.0036723 -0.000121973 -0.000404585 -6.90973e-05 -0.000488125 -0.000404585 -0.00132251 -0.000488125 -0.00154675 -6.90973e-05 -0.000488125 0.000112296 -0.00054343 -0.000488125 -0.00154675 -0.00054343 -0.00164129 -0.00132251 -0.00246421 -0.00154675 -0.00286333 -0.00246421 -0.0036723 -0.00286333 -0.00424123 -0.00154675 -0.00286333 -0.00164129 -0.00305064 -0.00286333 -0.00424123 -0.00305064 -0.00451185 -4.20979e-05 -6.24814e-05 -0.00239486 -0.00319871 -6.24814e-05 -8.15718e-05 -0.00319871 -0.00396832 -0.00239486 -0.00319871 -0.0036723 -0.00486531 -0.00319871 -0.00396832 -0.00486531 -0.00600915 -8.15718e-05 -9.94808e-05 -0.00396832 -0.00469272 -9.94808e-05 -0.000116129 -0.00469272 -0.00536402 -0.00396832 -0.00469272 -0.00600915 -0.0070862 -0.00469272 -0.00536402 -0.0070862 -0.00808393 -0.0036723 -0.00486531 -0.00424123 -0.00559946 -0.00486531 -0.00600915 -0.00559946 -0.00690108 -0.00424123 -0.00559946 -0.00451185 -0.0059507 -0.00559946 -0.00690108 -0.0059507 -0.00732791 -0.00600915 -0.0070862 -0.00690108 -0.00812655 -0.0070862 -0.00808393 -0.00812655 -0.0092614 -0.00690108 -0.00812655 -0.00732791 -0.0086239 -0.00812655 -0.0092614 -0.0086239 -0.00982352 0.000112296 -0.00054343 0.000420768 -0.000607327 -0.00054343 -0.00164129 -0.000607327 -0.00170443 0.000420768 -0.000607327 0.000856563 -0.000692469 -0.000607327 -0.00170443 -0.000692469 -0.00177357 -0.00164129 -0.00305064 -0.00170443 -0.00319139 -0.00305064 -0.00451185 -0.00319139 -0.00471812 -0.00170443 -0.00319139 -0.00177357 -0.00334977 -0.00319139 -0.00471812 -0.00334977 -0.00494956 0.000856563 -0.000692469 0.00142371 -0.000802271 -0.000692469 -0.00177357 -0.000802271 -0.00185898 0.00142371 -0.000802271 0.00212894 -0.000938341 -0.000802271 -0.00185898 -0.000938341 -0.00196356 -0.00177357 -0.00334977 -0.00185898 -0.00354504 -0.00334977 -0.00494956 -0.00354504 -0.00523342 -0.00185898 -0.00354504 -0.00196356 -0.00378352 -0.00354504 -0.00523342 -0.00378352 -0.00557896 -0.00451185 -0.0059507 -0.00471812 -0.00622214 -0.0059507 -0.00732791 -0.00622214 -0.00765987 -0.00471812 -0.00622214 -0.00494956 -0.00652766 -0.00622214 -0.00765987 -0.00652766 -0.00803429 -0.00732791 -0.0086239 -0.00765987 -0.00901188 -0.0086239 -0.00982352 -0.00901188 -0.0102625 -0.00765987 -0.00901188 -0.00803429 -0.00944993 -0.00901188 -0.0102625 -0.00944993 -0.0107583 -0.00494956 -0.00652766 -0.00523342 -0.00690177 -0.00652766 -0.00803429 -0.00690177 -0.00849233 -0.00523342 -0.00690177 -0.00557896 -0.00735627 -0.00690177 -0.00849233 -0.00735627 -0.0090479 -0.00803429 -0.00944993 -0.00849233 -0.00998537 -0.00944993 -0.0107583 -0.00998537 -0.0113637 -0.00849233 -0.00998537 -0.0090479 -0.0106339 -0.00998537 -0.0113637 -0.0106339 -0.0120959 -0.000116129 -0.000131364 -0.00536402 -0.00597517 -0.000131364 -0.000145028 -0.00597517 -0.0065198 -0.00536402 -0.00597517 -0.00808393 -0.00899163 -0.00597517 -0.0065198 -0.00899163 -0.0097998 -0.000145028 -0.000156969 -0.0065198 -0.0069922 -0.000156969 -0.000167048 -0.0069922 -0.00738744 -0.0065198 -0.0069922 -0.0097998 -0.0105001 -0.0069922 -0.00738744 -0.0105001 -0.0110852 -0.00808393 -0.00899163 -0.0092614 -0.0102934 -0.00899163 -0.0097998 -0.0102934 -0.0112117 -0.0092614 -0.0102934 -0.00982352 -0.0109139 -0.0102934 -0.0112117 -0.0109139 -0.0118837 -0.0097998 -0.0105001 -0.0112117 -0.0120068 -0.0105001 -0.0110852 -0.0120068 -0.0126707 -0.0112117 -0.0120068 -0.0118837 -0.0127231 -0.0120068 -0.0126707 -0.0127231 -0.0134238 -0.000167048 -0.000175144 -0.00738744 -0.00770137 -0.000175144 -0.000181159 -0.00770137 -0.00793069 -0.00738744 -0.00770137 -0.0110852 -0.0115492 -0.00770137 -0.00793069 -0.0115492 -0.0118873 -0.000181159 -0.00018502 -0.00793069 -0.0080729 -0.00018502 -0.000186667 -0.0080729 -0.00812636 -0.00793069 -0.0080729 -0.0118873 -0.012096 -0.0080729 -0.00812636 -0.012096 -0.0121728 -0.0110852 -0.0115492 -0.0126707 -0.0131968 -0.0115492 -0.0118873 -0.0131968 -0.0135797 -0.0126707 -0.0131968 -0.0134238 -0.0139788 -0.0131968 -0.0135797 -0.0139788 -0.0143827 -0.0118873 -0.012096 -0.0135797 -0.0138155 -0.012096 -0.0121728 -0.0138155 -0.0139017 -0.0135797 -0.0138155 -0.0143827 -0.0146315 -0.0138155 -0.0139017 -0.0146315 -0.0147227 -0.00982352 -0.0109139 -0.0102625 -0.0113987 -0.0109139 -0.0118837 -0.0113987 -0.0124086 -0.0102625 -0.0113987 -0.0107583 -0.0119459 -0.0113987 -0.0124086 -0.0119459 -0.0130009 -0.0118837 -0.0127231 -0.0124086 -0.0132824 -0.0127231 -0.0134238 -0.0132824 -0.0140115 -0.0124086 -0.0132824 -0.0130009 -0.0139131 -0.0132824 -0.0140115 -0.0139131 -0.014674 -0.0107583 -0.0119459 -0.0113637 -0.0126135 -0.0119459 -0.0130009 -0.0126135 -0.0137226 -0.0113637 -0.0126135 -0.0120959 -0.0134196 -0.0126135 -0.0137226 -0.0134196 -0.0145928 -0.0130009 -0.0139131 -0.0137226 -0.0146808 -0.0139131 -0.014674 -0.0146808 -0.0154798 -0.0137226 -0.0146808 -0.0145928 -0.0156053 -0.0146808 -0.0154798 -0.0156053 -0.0164489 -0.0134238 -0.0139788 -0.0140115 -0.0145891 -0.0139788 -0.0143827 -0.0145891 -0.0150097 -0.0140115 -0.0145891 -0.014674 -0.0152768 -0.0145891 -0.0150097 -0.0152768 -0.015716 -0.0143827 -0.0146315 -0.0150097 -0.0152692 -0.0146315 -0.0147227 -0.0152692 -0.015365 -0.0150097 -0.0152692 -0.015716 -0.0159877 -0.0152692 -0.015365 -0.0159877 -0.0160892 -0.014674 -0.0152768 -0.0154798 -0.0161126 -0.0152768 -0.015716 -0.0161126 -0.0165742 -0.0154798 -0.0161126 -0.0164489 -0.0171171 -0.0161126 -0.0165742 -0.0171171 -0.0176047 -0.015716 -0.0159877 -0.0165742 -0.0168605 -0.0159877 -0.0160892 -0.0168605 -0.0169689 -0.0165742 -0.0168605 -0.0176047 -0.0179081 -0.0168605 -0.0169689 -0.0179081 -0.0180248 0.00212894 -0.000938341 0.00298111 -0.00110248 -0.000938341 -0.00196356 -0.00110248 -0.00208926 0.00298111 -0.00110248 0.00399119 -0.00129701 -0.00110248 -0.00208926 -0.00129701 -0.00223848 -0.00196356 -0.00378352 -0.00208926 -0.00406961 -0.00378352 -0.00557896 -0.00406961 -0.00599263 -0.00208926 -0.00406961 -0.00223848 -0.00440848 -0.00406961 -0.00599263 -0.00440848 -0.00648177 0.00399119 -0.00129701 0.00517238 -0.00152488 -0.00129701 -0.00223848 -0.00152488 -0.00241442 0.00517238 -0.00152488 0.00654033 -0.00178971 -0.00152488 -0.00241442 -0.00178971 -0.00262128 -0.00223848 -0.00440848 -0.00241442 -0.0048067 -0.00440848 -0.00648177 -0.0048067 -0.00705562 -0.00241442 -0.0048067 -0.00262128 -0.00527275 -0.0048067 -0.00705562 -0.00527275 -0.00772593 -0.00557896 -0.00735627 -0.00599263 -0.00789935 -0.00735627 -0.0090479 -0.00789935 -0.00971053 -0.00599263 -0.00789935 -0.00648177 -0.00854027 -0.00789935 -0.00971053 -0.00854027 -0.0104909 -0.0090479 -0.0106339 -0.00971053 -0.0114059 -0.0106339 -0.0120959 -0.0114059 -0.0129658 -0.00971053 -0.0114059 -0.0104909 -0.012313 -0.0114059 -0.0129658 -0.012313 -0.0139856 -0.00648177 -0.00854027 -0.00705562 -0.00929049 -0.00854027 -0.0104909 -0.00929049 -0.011402 -0.00705562 -0.00929049 -0.00772593 -0.0101645 -0.00929049 -0.011402 -0.0101645 -0.0124603 -0.0104909 -0.012313 -0.011402 -0.0133692 -0.012313 -0.0139856 -0.0133692 -0.0151697 -0.011402 -0.0133692 -0.0124603 -0.0145919 -0.0133692 -0.0151697 -0.0145919 -0.0165355 0.00654033 -0.00178971 0.00811355 -0.00209594 -0.00178971 -0.00262128 -0.00209594 -0.00286455 0.00811355 -0.00209594 0.00991385 -0.00244911 -0.00209594 -0.00286455 -0.00244911 -0.00315153 -0.00262128 -0.00527275 -0.00286455 -0.00581753 -0.00527275 -0.00772593 -0.00581753 -0.00850777 -0.00286455 -0.00581753 -0.00315153 -0.00645529 -0.00581753 -0.00850777 -0.00645529 -0.0094206 0.00991385 -0.00244911 0.011967 -0.00285616 -0.00244911 -0.00315153 -0.00285616 -0.00349203 0.011967 -0.00285616 0.0143036 -0.0033259 -0.00285616 -0.00349203 -0.0033259 -0.00389939 -0.00315153 -0.00645529 -0.00349203 -0.00720476 -0.00645529 -0.0094206 -0.00720476 -0.0104899 -0.00349203 -0.00720476 -0.00389939 -0.00809105 -0.00720476 -0.0104899 -0.00809105 -0.0117493 -0.00772593 -0.0101645 -0.00850777 -0.0111807 -0.0101645 -0.0124603 -0.0111807 -0.0136861 -0.00850777 -0.0111807 -0.0094206 -0.0123624 -0.0111807 -0.0136861 -0.0123624 -0.0151052 -0.0124603 -0.0145919 -0.0136861 -0.0160024 -0.0145919 -0.0165355 -0.0160024 -0.0181042 -0.0136861 -0.0160024 -0.0151052 -0.017627 -0.0160024 -0.0181042 -0.017627 -0.0199016 -0.0094206 -0.0123624 -0.0104899 -0.01374 -0.0123624 -0.0151052 -0.01374 -0.0167502 -0.0104899 -0.01374 -0.0117493 -0.0153529 -0.01374 -0.0167502 -0.0153529 -0.0186631 -0.0151052 -0.017627 -0.0167502 -0.0194986 -0.017627 -0.0199016 -0.0194986 -0.0219588 -0.0167502 -0.0194986 -0.0186631 -0.0216586 -0.0194986 -0.0219588 -0.0216586 -0.024314 -0.0120959 -0.0134196 -0.0129658 -0.0143757 -0.0134196 -0.0145928 -0.0143757 -0.0156231 -0.0129658 -0.0143757 -0.0139856 -0.0154938 -0.0143757 -0.0156231 -0.0154938 -0.0168252 -0.0145928 -0.0156053 -0.0156231 -0.016698 -0.0156053 -0.0164489 -0.016698 -0.0175927 -0.0156231 -0.016698 -0.0168252 -0.0179704 -0.016698 -0.0175927 -0.0179704 -0.0189221 -0.0139856 -0.0154938 -0.0151697 -0.0167883 -0.0154938 -0.0168252 -0.0167883 -0.018213 -0.0151697 -0.0167883 -0.0165355 -0.0182761 -0.0167883 -0.018213 -0.0182761 -0.0198027 -0.0168252 -0.0179704 -0.018213 -0.0194355 -0.0179704 -0.0189221 -0.0194355 -0.0204495 -0.018213 -0.0194355 -0.0198027 -0.0211082 -0.0194355 -0.0204495 -0.0211082 -0.0221885 -0.0164489 -0.0171171 -0.0175927 -0.018301 -0.0171171 -0.0176047 -0.018301 -0.0188184 -0.0175927 -0.018301 -0.0189221 -0.0196752 -0.018301 -0.0188184 -0.0196752 -0.0202257 -0.0176047 -0.0179081 -0.0188184 -0.0191415 -0.0179081 -0.0180248 -0.0191415 -0.019268 -0.0188184 -0.0191415 -0.0202257 -0.0205707 -0.0191415 -0.019268 -0.0205707 -0.0207084 -0.0189221 -0.0196752 -0.0204495 -0.0212511 -0.0196752 -0.0202257 -0.0212511 -0.0218374 -0.0204495 -0.0212511 -0.0221885 -0.0230412 -0.0212511 -0.0218374 -0.0230412 -0.0236653 -0.0202257 -0.0205707 -0.0218374 -0.0222065 -0.0205707 -0.0207084 -0.0222065 -0.0223568 -0.0218374 -0.0222065 -0.0236653 -0.0240599 -0.0222065 -0.0223568 -0.0240599 -0.0242243 -0.0165355 -0.0182761 -0.0181042 -0.0199775 -0.0182761 -0.0198027 -0.0199775 -0.0216128 -0.0181042 -0.0199775 -0.0199016 -0.0219163 -0.0199775 -0.0216128 -0.0219163 -0.0236648 -0.0198027 -0.0211082 -0.0216128 -0.0230055 -0.0211082 -0.0221885 -0.0230055 -0.0241541 -0.0216128 -0.0230055 -0.0236648 -0.025146 -0.0230055 -0.0241541 -0.025146 -0.0263624 -0.0199016 -0.0219163 -0.0219588 -0.024121 -0.0219163 -0.0236648 -0.024121 -0.0259834 -0.0219588 -0.024121 -0.024314 -0.0266249 -0.024121 -0.0259834 -0.0266249 -0.0285964 -0.0236648 -0.025146 -0.0259834 -0.0275504 -0.025146 -0.0263624 -0.0275504 -0.0288301 -0.0259834 -0.0275504 -0.0285964 -0.0302409 -0.0275504 -0.0288301 -0.0302409 -0.0315742 -0.0221885 -0.0230412 -0.0241541 -0.0250591 -0.0230412 -0.0236653 -0.0250591 -0.0257214 -0.0241541 -0.0250591 -0.0263624 -0.0273181 -0.0250591 -0.0257214 -0.0273181 -0.0280177 -0.0236653 -0.0240599 -0.0257214 -0.0261424 -0.0240599 -0.0242243 -0.0261424 -0.0263221 -0.0257214 -0.0261424 -0.0280177 -0.0284646 -0.0261424 -0.0263221 -0.0284646 -0.0286608 -0.0263624 -0.0273181 -0.0288301 -0.029832 -0.0273181 -0.0280177 -0.029832 -0.030565 -0.0288301 -0.029832 -0.0315742 -0.032613 -0.029832 -0.030565 -0.032613 -0.0333723 -0.0280177 -0.0284646 -0.030565 -0.031036 -0.0284646 -0.0286608 -0.031036 -0.0312491 -0.030565 -0.031036 -0.0333723 -0.0338635 -0.031036 -0.0312491 -0.0338635 -0.0340934 -0.000186667 -0.000186063 -0.00812636 -0.00809024 -0.000186063 -0.000183195 -0.00809024 -0.00796461 -0.00812636 -0.00809024 -0.0121728 -0.0121169 -0.00809024 -0.00796461 -0.0121169 -0.0119282 -0.000183195 -0.000178079 -0.00796461 -0.00775039 -0.000178079 -0.000170753 -0.00775039 -0.00744944 -0.00796461 -0.00775039 -0.0119282 -0.0116083 -0.00775039 -0.00744944 -0.0116083 -0.01116 -0.0121728 -0.0121169 -0.0139017 -0.0138371 -0.0121169 -0.0119282 -0.0138371 -0.013622 -0.0139017 -0.0138371 -0.0147227 -0.0146549 -0.0138371 -0.013622 -0.0146549 -0.0144284 -0.0119282 -0.0116083 -0.013622 -0.0132579 -0.0116083 -0.01116 -0.0132579 -0.0127481 -0.013622 -0.0132579 -0.0144284 -0.0140449 -0.0132579 -0.0127481 -0.0140449 -0.0135075 -0.000170753 -0.000161277 -0.00744944 -0.00706448 -0.000161277 -0.000149739 -0.00706448 -0.00659919 -0.00744944 -0.00706448 -0.01116 -0.0105874 -0.00706448 -0.00659919 -0.0105874 -0.00989577 -0.000149739 -0.00013626 -0.00659919 -0.0060582 -0.00013626 -0.000120989 -0.0060582 -0.005447 -0.00659919 -0.0060582 -0.00989577 -0.00909209 -0.0060582 -0.005447 -0.00909209 -0.00818445 -0.01116 -0.0105874 -0.0127481 -0.012097 -0.0105874 -0.00989577 -0.012097 -0.0113109 -0.0127481 -0.012097 -0.0135075 -0.0128208 -0.012097 -0.0113109 -0.0128208 -0.0119912 -0.00989577 -0.00909209 -0.0113109 -0.0103973 -0.00909209 -0.00818445 -0.0103973 -0.00936536 -0.0113109 -0.0103973 -0.0119912 -0.0110264 -0.0103973 -0.00936536 -0.0110264 -0.00993615 -0.0147227 -0.0146549 -0.015365 -0.0152959 -0.0146549 -0.0144284 -0.0152959 -0.015062 -0.015365 -0.0152959 -0.0160892 -0.0160192 -0.0152959 -0.015062 -0.0160192 -0.0157776 -0.0144284 -0.0140449 -0.015062 -0.0146648 -0.0140449 -0.0135075 -0.0146648 -0.0141074 -0.015062 -0.0146648 -0.0157776 -0.015366 -0.0146648 -0.0141074 -0.015366 -0.0147871 -0.0160892 -0.0160192 -0.0169689 -0.016898 -0.0160192 -0.0157776 -0.016898 -0.0166478 -0.0169689 -0.016898 -0.0180248 -0.0179534 -0.016898 -0.0166478 -0.0179534 -0.0176934 -0.0157776 -0.015366 -0.0166478 -0.0162194 -0.015366 -0.0147871 -0.0162194 -0.0156151 -0.0166478 -0.0162194 -0.0176934 -0.0172457 -0.0162194 -0.0156151 -0.0172457 -0.0166123 -0.0135075 -0.0128208 -0.0141074 -0.0133943 -0.0128208 -0.0119912 -0.0133943 -0.0125318 -0.0141074 -0.0133943 -0.0147871 -0.0140452 -0.0133943 -0.0125318 -0.0140452 -0.0131464 -0.0119912 -0.0110264 -0.0125318 -0.0115277 -0.0110264 -0.00993615 -0.0115277 -0.0103918 -0.0125318 -0.0115277 -0.0131464 -0.0120986 -0.0115277 -0.0103918 -0.0120986 -0.0109114 -0.0147871 -0.0140452 -0.0156151 -0.0148392 -0.0140452 -0.0131464 -0.0148392 -0.0138973 -0.0156151 -0.0148392 -0.0166123 -0.0157968 -0.0148392 -0.0138973 -0.0157968 -0.0148042 -0.0131464 -0.0120986 -0.0138973 -0.012797 -0.0120986 -0.0109114 -0.012797 -0.011548 -0.0138973 -0.012797 -0.0148042 -0.013642 -0.012797 -0.011548 -0.013642 -0.0123195 -0.000120989 -0.000104052 -0.005447 -0.00477223 -0.000104052 -8.57891e-05 -0.00477223 -0.00404012 -0.005447 -0.00477223 -0.00818445 -0.00718258 -0.00477223 -0.00404012 -0.00718258 -0.00609618 -8.57891e-05 -6.55082e-05 -0.00404012 -0.00326487 -6.55082e-05 -4.70639e-05 -0.00326487 -0.00242868 -0.00404012 -0.00326487 -0.00609618 -0.00494419 -0.00326487 -0.00242868 -0.00494419 -0.00371052 -0.00818445 -0.00718258 -0.00936536 -0.00822613 -0.00718258 -0.00609618 -0.00822613 -0.00699075 -0.00936536 -0.00822613 -0.00993615 -0.00873176 -0.00822613 -0.00699075 -0.00873176 -0.00742508 -0.00609618 -0.00494419 -0.00699075 -0.00568005 -0.00494419 -0.00371052 -0.00568005 -0.00428046 -0.00699075 -0.00568005 -0.00742508 -0.0060379 -0.00568005 -0.00428046 -0.0060379 -0.00455737 -4.70639e-05 -2.55585e-05 -0.00242868 -0.0017058 -2.55585e-05 8.16383e-05 -0.0017058 -0.000304896 -0.00242868 -0.0017058 -0.00371052 -0.00260653 -0.0017058 -0.000304896 -0.00260653 -0.000757726 8.16383e-05 -6.20122e-05 -0.000304896 -0.00268665 -6.20122e-05 0.0204595 -0.00268665 0.0182132 -0.000304896 -0.00268665 -0.000757726 -0.00297753 -0.00268665 0.0182132 -0.00297753 0.0192506 -0.00371052 -0.00260653 -0.00428046 -0.00301012 -0.00260653 -0.000757726 -0.00301012 -0.000977426 -0.00428046 -0.00301012 -0.00455737 -0.00320381 -0.00301012 -0.000977426 -0.00320381 -0.00107848 -0.000757726 -0.00297753 -0.000977426 -0.00311991 -0.00297753 0.0192506 -0.00311991 0.0192441 -0.000977426 -0.00311991 -0.00107848 -0.00317914 -0.00311991 0.0192441 -0.00317914 0.0194141 -0.00993615 -0.00873176 -0.0103918 -0.00913576 -0.00873176 -0.00742508 -0.00913576 -0.00777178 -0.0103918 -0.00913576 -0.0109114 -0.00959682 -0.00913576 -0.00777178 -0.00959682 -0.00816735 -0.00742508 -0.0060379 -0.00777178 -0.00632231 -0.0060379 -0.00455737 -0.00632231 -0.00477443 -0.00777178 -0.00632231 -0.00816735 -0.00664618 -0.00632231 -0.00477443 -0.00664618 -0.00502046 -0.0109114 -0.00959682 -0.011548 -0.0101623 -0.00959682 -0.00816735 -0.0101623 -0.00865299 -0.011548 -0.0101623 -0.0123195 -0.0108489 -0.0101623 -0.00865299 -0.0108489 -0.00924364 -0.00816735 -0.00664618 -0.00865299 -0.00704414 -0.00664618 -0.00502046 -0.00704414 -0.00532317 -0.00865299 -0.00704414 -0.00924364 -0.00752896 -0.00704414 -0.00532317 -0.00752896 -0.00569275 -0.00455737 -0.00320381 -0.00477443 -0.00335234 -0.00320381 -0.00107848 -0.00335234 -0.00114444 -0.00477443 -0.00335234 -0.00502046 -0.00352072 -0.00335234 -0.00114444 -0.00352072 -0.00121821 -0.00107848 -0.00317914 -0.00114444 -0.00324237 -0.00317914 0.0194141 -0.00324237 0.0197337 -0.00114444 -0.00324237 -0.00121821 -0.00333027 -0.00324237 0.0197337 -0.00333027 0.0201785 -0.00502046 -0.00352072 -0.00532317 -0.00372909 -0.00352072 -0.00121821 -0.00372909 -0.00131034 -0.00532317 -0.00372909 -0.00569275 -0.00398449 -0.00372909 -0.00131034 -0.00398449 -0.00142388 -0.00121821 -0.00333027 -0.00131034 -0.00344394 -0.00333027 0.0201785 -0.00344394 0.0207582 -0.00131034 -0.00344394 -0.00142388 -0.00358523 -0.00344394 0.0207582 -0.00358523 0.0214787 -0.0180248 -0.0179534 -0.019268 -0.0191963 -0.0179534 -0.0176934 -0.0191963 -0.0189258 -0.019268 -0.0191963 -0.0207084 -0.0206371 -0.0191963 -0.0189258 -0.0206371 -0.0203558 -0.0176934 -0.0172457 -0.0189258 -0.0184569 -0.0172457 -0.0166123 -0.0184569 -0.0177908 -0.0189258 -0.0184569 -0.0203558 -0.0198643 -0.0184569 -0.0177908 -0.0198643 -0.019163 -0.0207084 -0.0206371 -0.0223568 -0.0222868 -0.0206371 -0.0203558 -0.0222868 -0.0219952 -0.0223568 -0.0222868 -0.0242243 -0.0241571 -0.0222868 -0.0219952 -0.0241571 -0.0238564 -0.0203558 -0.0198643 -0.0219952 -0.0214807 -0.0198643 -0.019163 -0.0214807 -0.0207425 -0.0219952 -0.0214807 -0.0238564 -0.0233198 -0.0214807 -0.0207425 -0.0233198 -0.0225448 -0.0166123 -0.0157968 -0.0177908 -0.0169305 -0.0157968 -0.0148042 -0.0169305 -0.0158803 -0.0177908 -0.0169305 -0.019163 -0.0182535 -0.0169305 -0.0158803 -0.0182535 -0.0171391 -0.0148042 -0.013642 -0.0158803 -0.0146467 -0.013642 -0.0123195 -0.0146467 -0.0132389 -0.0158803 -0.0146467 -0.0171391 -0.0158253 -0.0146467 -0.0132389 -0.0158253 -0.0143204 -0.019163 -0.0182535 -0.0207425 -0.0197806 -0.0182535 -0.0171391 -0.0197806 -0.0185967 -0.0207425 -0.0197806 -0.0225448 -0.0215291 -0.0197806 -0.0185967 -0.0215291 -0.020272 -0.0171391 -0.0158253 -0.0185967 -0.0171946 -0.0158253 -0.0143204 -0.0171946 -0.0155812 -0.0185967 -0.0171946 -0.020272 -0.0187749 -0.0171946 -0.0155812 -0.0187749 -0.0170423 -0.0242243 -0.0241571 -0.0263221 -0.0262596 -0.0241571 -0.0238564 -0.0262596 -0.0259523 -0.0263221 -0.0262596 -0.0286608 -0.0286055 -0.0262596 -0.0259523 -0.0286055 -0.0282955 -0.0238564 -0.0233198 -0.0259523 -0.0253963 -0.0233198 -0.0225448 -0.0253963 -0.0245866 -0.0259523 -0.0253963 -0.0282955 -0.027725 -0.0253963 -0.0245866 -0.027725 -0.0268861 -0.0286608 -0.0286055 -0.0312491 -0.0312043 -0.0286055 -0.0282955 -0.0312043 -0.0308976 -0.0312491 -0.0312043 -0.0340934 -0.0340631 -0.0312043 -0.0308976 -0.0340631 -0.0337678 -0.0282955 -0.027725 -0.0308976 -0.0303206 -0.027725 -0.0268861 -0.0303206 -0.0294617 -0.0308976 -0.0303206 -0.0337678 -0.0331963 -0.0303206 -0.0294617 -0.0331963 -0.0323321 -0.0225448 -0.0215291 -0.0245866 -0.0235182 -0.0215291 -0.020272 -0.0235182 -0.0221868 -0.0245866 -0.0235182 -0.0268861 -0.0257695 -0.0235182 -0.0221868 -0.0257695 -0.0243661 -0.020272 -0.0187749 -0.0221868 -0.02059 -0.0187749 -0.0170423 -0.02059 -0.0187293 -0.0221868 -0.02059 -0.0243661 -0.0226686 -0.02059 -0.018729