# vtk DataFile Version 3.0
#This file was generated by the deal.II library on 2026/1/5 at 14:19:35
ASCII
DATASET UNSTRUCTURED_GRID

POINTS 4096 double
0 0 0
0.03125 0 0
0 0.03125 0
0.03125 0.03125 0
0.03125 0 0
0.0625 0 0
0.03125 0.03125 0
0.0625 0.03125 0
0 0.03125 0
0.03125 0.03125 0
0 0.0625 0
0.03125 0.0625 0
0.03125 0.03125 0
0.0625 0.03125 0
0.03125 0.0625 0
0.0625 0.0625 0
0.0625 0 0
0.09375 0 0
0.0625 0.03125 0
0.09375 0.03125 0
0.09375 0 0
0.125 0 0
0.09375 0.03125 0
0.125 0.03125 0
0.0625 0.03125 0
0.09375 0.03125 0
0.0625 0.0625 0
0.09375 0.0625 0
0.09375 0.03125 0
0.125 0.03125 0
0.09375 0.0625 0
0.125 0.0625 0
0 0.0625 0
0.03125 0.0625 0
0 0.09375 0
0.03125 0.09375 0
0.03125 0.0625 0
0.0625 0.0625 0
0.03125 0.09375 0
0.0625 0.09375 0
0 0.09375 0
0.03125 0.09375 0
0 0.125 0
0.03125 0.125 0
0.03125 0.09375 0
0.0625 0.09375 0
0.03125 0.125 0
0.0625 0.125 0
0.0625 0.0625 0
0.09375 0.0625 0
0.0625 0.09375 0
0.09375 0.09375 0
0.09375 0.0625 0
0.125 0.0625 0
0.09375 0.09375 0
0.125 0.09375 0
0.0625 0.09375 0
0.09375 0.09375 0
0.0625 0.125 0
0.09375 0.125 0
0.09375 0.09375 0
0.125 0.09375 0
0.09375 0.125 0
0.125 0.125 0
0.125 0 0
0.15625 0 0
0.125 0.03125 0
0.15625 0.03125 0
0.15625 0 0
0.1875 0 0
0.15625 0.03125 0
0.1875 0.03125 0
0.125 0.03125 0
0.15625 0.03125 0
0.125 0.0625 0
0.15625 0.0625 0
0.15625 0.03125 0
0.1875 0.03125 0
0.15625 0.0625 0
0.1875 0.0625 0
0.1875 0 0
0.21875 0 0
0.1875 0.03125 0
0.21875 0.03125 0
0.21875 0 0
0.25 0 0
0.21875 0.03125 0
0.25 0.03125 0
0.1875 0.03125 0
0.21875 0.03125 0
0.1875 0.0625 0
0.21875 0.0625 0
0.21875 0.03125 0
0.25 0.03125 0
0.21875 0.0625 0
0.25 0.0625 0
0.125 0.0625 0
0.15625 0.0625 0
0.125 0.09375 0
0.15625 0.09375 0
0.15625 0.0625 0
0.1875 0.0625 0
0.15625 0.09375 0
0.1875 0.09375 0
0.125 0.09375 0
0.15625 0.09375 0
0.125 0.125 0
0.15625 0.125 0
0.15625 0.09375 0
0.1875 0.09375 0
0.15625 0.125 0
0.1875 0.125 0
0.1875 0.0625 0
0.21875 0.0625 0
0.1875 0.09375 0
0.21875 0.09375 0
0.21875 0.0625 0
0.25 0.0625 0
0.21875 0.09375 0
0.25 0.09375 0
0.1875 0.09375 0
0.21875 0.09375 0
0.1875 0.125 0
0.21875 0.125 0
0.21875 0.09375 0
0.25 0.09375 0
0.21875 0.125 0
0.25 0.125 0
0 0.125 0
0.03125 0.125 0
0 0.15625 0
0.03125 0.15625 0
0.03125 0.125 0
0.0625 0.125 0
0.03125 0.15625 0
0.0625 0.15625 0
0 0.15625 0
0.03125 0.15625 0
0 0.1875 0
0.03125 0.1875 0
0.03125 0.15625 0
0.0625 0.15625 0
0.03125 0.1875 0
0.0625 0.1875 0
0.0625 0.125 0
0.09375 0.125 0
0.0625 0.15625 0
0.09375 0.15625 0
0.09375 0.125 0
0.125 0.125 0
0.09375 0.15625 0
0.125 0.15625 0
0.0625 0.15625 0
0.09375 0.15625 0
0.0625 0.1875 0
0.09375 0.1875 0
0.09375 0.15625 0
0.125 0.15625 0
0.09375 0.1875 0
0.125 0.1875 0
0 0.1875 0
0.03125 0.1875 0
0 0.21875 0
0.03125 0.21875 0
0.03125 0.1875 0
0.0625 0.1875 0
0.03125 0.21875 0
0.0625 0.21875 0
0 0.21875 0
0.03125 0.21875 0
0 0.25 0
0.03125 0.25 0
0.03125 0.21875 0
0.0625 0.21875 0
0.03125 0.25 0
0.0625 0.25 0
0.0625 0.1875 0
0.09375 0.1875 0
0.0625 0.21875 0
0.09375 0.21875 0
0.09375 0.1875 0
0.125 0.1875 0
0.09375 0.21875 0
0.125 0.21875 0
0.0625 0.21875 0
0.09375 0.21875 0
0.0625 0.25 0
0.09375 0.25 0
0.09375 0.21875 0
0.125 0.21875 0
0.09375 0.25 0
0.125 0.25 0
0.125 0.125 0
0.15625 0.125 0
0.125 0.15625 0
0.15625 0.15625 0
0.15625 0.125 0
0.1875 0.125 0
0.15625 0.15625 0
0.1875 0.15625 0
0.125 0.15625 0
0.15625 0.15625 0
0.125 0.1875 0
0.15625 0.1875 0
0.15625 0.15625 0
0.1875 0.15625 0
0.15625 0.1875 0
0.1875 0.1875 0
0.1875 0.125 0
0.21875 0.125 0
0.1875 0.15625 0
0.21875 0.15625 0
0.21875 0.125 0
0.25 0.125 0
0.21875 0.15625 0
0.25 0.15625 0
0.1875 0.15625 0
0.21875 0.15625 0
0.1875 0.1875 0
0.21875 0.1875 0
0.21875 0.15625 0
0.25 0.15625 0
0.21875 0.1875 0
0.25 0.1875 0
0.125 0.1875 0
0.15625 0.1875 0
0.125 0.21875 0
0.15625 0.21875 0
0.15625 0.1875 0
0.1875 0.1875 0
0.15625 0.21875 0
0.1875 0.21875 0
0.125 0.21875 0
0.15625 0.21875 0
0.125 0.25 0
0.15625 0.25 0
0.15625 0.21875 0
0.1875 0.21875 0
0.15625 0.25 0
0.1875 0.25 0
0.1875 0.1875 0
0.21875 0.1875 0
0.1875 0.21875 0
0.21875 0.21875 0
0.21875 0.1875 0
0.25 0.1875 0
0.21875 0.21875 0
0.25 0.21875 0
0.1875 0.21875 0
0.21875 0.21875 0
0.1875 0.25 0
0.21875 0.25 0
0.21875 0.21875 0
0.25 0.21875 0
0.21875 0.25 0
0.25 0.25 0
0.25 0 0
0.28125 0 0
0.25 0.03125 0
0.28125 0.03125 0
0.28125 0 0
0.3125 0 0
0.28125 0.03125 0
0.3125 0.03125 0
0.25 0.03125 0
0.28125 0.03125 0
0.25 0.0625 0
0.28125 0.0625 0
0.28125 0.03125 0
0.3125 0.03125 0
0.28125 0.0625 0
0.3125 0.0625 0
0.3125 0 0
0.34375 0 0
0.3125 0.03125 0
0.34375 0.03125 0
0.34375 0 0
0.375 0 0
0.34375 0.03125 0
0.375 0.03125 0
0.3125 0.03125 0
0.34375 0.03125 0
0.3125 0.0625 0
0.34375 0.0625 0
0.34375 0.03125 0
0.375 0.03125 0
0.34375 0.0625 0
0.375 0.0625 0
0.25 0.0625 0
0.28125 0.0625 0
0.25 0.09375 0
0.28125 0.09375 0
0.28125 0.0625 0
0.3125 0.0625 0
0.28125 0.09375 0
0.3125 0.09375 0
0.25 0.09375 0
0.28125 0.09375 0
0.25 0.125 0
0.28125 0.125 0
0.28125 0.09375 0
0.3125 0.09375 0
0.28125 0.125 0
0.3125 0.125 0
0.3125 0.0625 0
0.34375 0.0625 0
0.3125 0.09375 0
0.34375 0.09375 0
0.34375 0.0625 0
0.375 0.0625 0
0.34375 0.09375 0
0.375 0.09375 0
0.3125 0.09375 0
0.34375 0.09375 0
0.3125 0.125 0
0.34375 0.125 0
0.34375 0.09375 0
0.375 0.09375 0
0.34375 0.125 0
0.375 0.125 0
0.375 0 0
0.40625 0 0
0.375 0.03125 0
0.40625 0.03125 0
0.40625 0 0
0.4375 0 0
0.40625 0.03125 0
0.4375 0.03125 0
0.375 0.03125 0
0.40625 0.03125 0
0.375 0.0625 0
0.40625 0.0625 0
0.40625 0.03125 0
0.4375 0.03125 0
0.40625 0.0625 0
0.4375 0.0625 0
0.4375 0 0
0.46875 0 0
0.4375 0.03125 0
0.46875 0.03125 0
0.46875 0 0
0.5 0 0
0.46875 0.03125 0
0.5 0.03125 0
0.4375 0.03125 0
0.46875 0.03125 0
0.4375 0.0625 0
0.46875 0.0625 0
0.46875 0.03125 0
0.5 0.03125 0
0.46875 0.0625 0
0.5 0.0625 0
0.375 0.0625 0
0.40625 0.0625 0
0.375 0.09375 0
0.40625 0.09375 0
0.40625 0.0625 0
0.4375 0.0625 0
0.40625 0.09375 0
0.4375 0.09375 0
0.375 0.09375 0
0.40625 0.09375 0
0.375 0.125 0
0.40625 0.125 0
0.40625 0.09375 0
0.4375 0.09375 0
0.40625 0.125 0
0.4375 0.125 0
0.4375 0.0625 0
0.46875 0.0625 0
0.4375 0.09375 0
0.46875 0.09375 0
0.46875 0.0625 0
0.5 0.0625 0
0.46875 0.09375 0
0.5 0.09375 0
0.4375 0.09375 0
0.46875 0.09375 0
0.4375 0.125 0
0.46875 0.125 0
0.46875 0.09375 0
0.5 0.09375 0
0.46875 0.125 0
0.5 0.125 0
0.25 0.125 0
0.28125 0.125 0
0.25 0.15625 0
0.28125 0.15625 0
0.28125 0.125 0
0.3125 0.125 0
0.28125 0.15625 0
0.3125 0.15625 0
0.25 0.15625 0
0.28125 0.15625 0
0.25 0.1875 0
0.28125 0.1875 0
0.28125 0.15625 0
0.3125 0.15625 0
0.28125 0.1875 0
0.3125 0.1875 0
0.3125 0.125 0
0.34375 0.125 0
0.3125 0.15625 0
0.34375 0.15625 0
0.34375 0.125 0
0.375 0.125 0
0.34375 0.15625 0
0.375 0.15625 0
0.3125 0.15625 0
0.34375 0.15625 0
0.3125 0.1875 0
0.34375 0.1875 0
0.34375 0.15625 0
0.375 0.15625 0
0.34375 0.1875 0
0.375 0.1875 0
0.25 0.1875 0
0.28125 0.1875 0
0.25 0.21875 0
0.28125 0.21875 0
0.28125 0.1875 0
0.3125 0.1875 0
0.28125 0.21875 0
0.3125 0.21875 0
0.25 0.21875 0
0.28125 0.21875 0
0.25 0.25 0
0.28125 0.25 0
0.28125 0.21875 0
0.3125 0.21875 0
0.28125 0.25 0
0.3125 0.25 0
0.3125 0.1875 0
0.34375 0.1875 0
0.3125 0.21875 0
0.34375 0.21875 0
0.34375 0.1875 0
0.375 0.1875 0
0.34375 0.21875 0
0.375 0.21875 0
0.3125 0.21875 0
0.34375 0.21875 0
0.3125 0.25 0
0.34375 0.25 0
0.34375 0.21875 0
0.375 0.21875 0
0.34375 0.25 0
0.375 0.25 0
0.375 0.125 0
0.40625 0.125 0
0.375 0.15625 0
0.40625 0.15625 0
0.40625 0.125 0
0.4375 0.125 0
0.40625 0.15625 0
0.4375 0.15625 0
0.375 0.15625 0
0.40625 0.15625 0
0.375 0.1875 0
0.40625 0.1875 0
0.40625 0.15625 0
0.4375 0.15625 0
0.40625 0.1875 0
0.4375 0.1875 0
0.4375 0.125 0
0.46875 0.125 0
0.4375 0.15625 0
0.46875 0.15625 0
0.46875 0.125 0
0.5 0.125 0
0.46875 0.15625 0
0.5 0.15625 0
0.4375 0.15625 0
0.46875 0.15625 0
0.4375 0.1875 0
0.46875 0.1875 0
0.46875 0.15625 0
0.5 0.15625 0
0.46875 0.1875 0
0.5 0.1875 0
0.375 0.1875 0
0.40625 0.1875 0
0.375 0.21875 0
0.40625 0.21875 0
0.40625 0.1875 0
0.4375 0.1875 0
0.40625 0.21875 0
0.4375 0.21875 0
0.375 0.21875 0
0.40625 0.21875 0
0.375 0.25 0
0.40625 0.25 0
0.40625 0.21875 0
0.4375 0.21875 0
0.40625 0.25 0
0.4375 0.25 0
0.4375 0.1875 0
0.46875 0.1875 0
0.4375 0.21875 0
0.46875 0.21875 0
0.46875 0.1875 0
0.5 0.1875 0
0.46875 0.21875 0
0.5 0.21875 0
0.4375 0.21875 0
0.46875 0.21875 0
0.4375 0.25 0
0.46875 0.25 0
0.46875 0.21875 0
0.5 0.21875 0
0.46875 0.25 0
0.5 0.25 0
0 0.25 0
0.03125 0.25 0
0 0.28125 0
0.03125 0.28125 0
0.03125 0.25 0
0.0625 0.25 0
0.03125 0.28125 0
0.0625 0.28125 0
0 0.28125 0
0.03125 0.28125 0
0 0.3125 0
0.03125 0.3125 0
0.03125 0.28125 0
0.0625 0.28125 0
0.03125 0.3125 0
0.0625 0.3125 0
0.0625 0.25 0
0.09375 0.25 0
0.0625 0.28125 0
0.09375 0.28125 0
0.09375 0.25 0
0.125 0.25 0
0.09375 0.28125 0
0.125 0.28125 0
0.0625 0.28125 0
0.09375 0.28125 0
0.0625 0.3125 0
0.09375 0.3125 0
0.09375 0.28125 0
0.125 0.28125 0
0.09375 0.3125 0
0.125 0.3125 0
0 0.3125 0
0.03125 0.3125 0
0 0.34375 0
0.03125 0.34375 0
0.03125 0.3125 0
0.0625 0.3125 0
0.03125 0.34375 0
0.0625 0.34375 0
0 0.34375 0
0.03125 0.34375 0
0 0.375 0
0.03125 0.375 0
0.03125 0.34375 0
0.0625 0.34375 0
0.03125 0.375 0
0.0625 0.375 0
0.0625 0.3125 0
0.09375 0.3125 0
0.0625 0.34375 0
0.09375 0.34375 0
0.09375 0.3125 0
0.125 0.3125 0
0.09375 0.34375 0
0.125 0.34375 0
0.0625 0.34375 0
0.09375 0.34375 0
0.0625 0.375 0
0.09375 0.375 0
0.09375 0.34375 0
0.125 0.34375 0
0.09375 0.375 0
0.125 0.375 0
0.125 0.25 0
0.15625 0.25 0
0.125 0.28125 0
0.15625 0.28125 0
0.15625 0.25 0
0.1875 0.25 0
0.15625 0.28125 0
0.1875 0.28125 0
0.125 0.28125 0
0.15625 0.28125 0
0.125 0.3125 0
0.15625 0.3125 0
0.15625 0.28125 0
0.1875 0.28125 0
0.15625 0.3125 0
0.1875 0.3125 0
0.1875 0.25 0
0.21875 0.25 0
0.1875 0.28125 0
0.21875 0.28125 0
0.21875 0.25 0
0.25 0.25 0
0.21875 0.28125 0
0.25 0.28125 0
0.1875 0.28125 0
0.21875 0.28125 0
0.1875 0.3125 0
0.21875 0.3125 0
0.21875 0.28125 0
0.25 0.28125 0
0.21875 0.3125 0
0.25 0.3125 0
0.125 0.3125 0
0.15625 0.3125 0
0.125 0.34375 0
0.15625 0.34375 0
0.15625 0.3125 0
0.1875 0.3125 0
0.15625 0.34375 0
0.1875 0.34375 0
0.125 0.34375 0
[...]
POINT_DATA 4096
SCALARS u_x double 1
LOOKUP_TABLE default
2.08288e-05 1.50686e-05 -2.19413e-05 -5.46672e-05 1.50686e-05 2.24083e-05 -5.46672e-05 -0.000391268 -2.19413e-05 -5.46672e-05 -0.00014494 -0.00022225 -5.46672e-05 -0.000391268 -0.00022225 -0.000978953 2.24083e-05 1.91949e-05 -0.000391268 -0.00101329 1.91949e-05 9.77258e-06 -0.00101329 -0.00187464 -0.000391268 -0.00101329 -0.000978953 -0.00216607 -0.00101329 -0.00187464 -0.00216607 -0.00372193 -0.00014494 -0.00022225 -0.000276436 -0.000378846 -0.00022225 -0.000978953 -0.000378846 -0.00153554 -0.000276436 -0.000378846 -0.000369288 -0.000504662 -0.000378846 -0.00153554 -0.000504662 -0.00199569 -0.000978953 -0.00216607 -0.00153554 -0.00322431 -0.00216607 -0.00372193 -0.00322431 -0.00535903 -0.00153554 -0.00322431 -0.00199569 -0.00411168 -0.00322431 -0.00535903 -0.00411168 -0.00673094 9.77258e-06 -2.24247e-06 -0.00187464 -0.00289181 -2.24247e-06 -1.49107e-05 -0.00289181 -0.00399005 -0.00187464 -0.00289181 -0.00372193 -0.00552173 -0.00289181 -0.00399005 -0.00552173 -0.00745233 -1.49107e-05 -2.73192e-05 -0.00399005 -0.00510916 -2.73192e-05 -3.90492e-05 -0.00510916 -0.00620399 -0.00399005 -0.00510916 -0.00745233 -0.00941684 -0.00510916 -0.00620399 -0.00941684 -0.0113392 -0.00372193 -0.00552173 -0.00535903 -0.00778205 -0.00552173 -0.00745233 -0.00778205 -0.010358 -0.00535903 -0.00778205 -0.00673094 -0.00966305 -0.00778205 -0.010358 -0.00966305 -0.0127544 -0.00745233 -0.00941684 -0.010358 -0.0129685 -0.00941684 -0.0113392 -0.0129685 -0.0155183 -0.010358 -0.0129685 -0.0127544 -0.0158723 -0.0129685 -0.0155183 -0.0158723 -0.0189094 -0.000369288 -0.000504662 -0.00040019 -0.000606413 -0.000504662 -0.00199569 -0.000606413 -0.00236125 -0.00040019 -0.000606413 -0.000357683 -0.000695687 -0.000606413 -0.00236125 -0.000695687 -0.00265696 -0.00199569 -0.00411168 -0.00236125 -0.00483517 -0.00411168 -0.00673094 -0.00483517 -0.00786241 -0.00236125 -0.00483517 -0.00265696 -0.00543695 -0.00483517 -0.00786241 -0.00543695 -0.00881672 -0.000357683 -0.000695687 -0.00023566 -0.00078318 -0.000695687 -0.00265696 -0.00078318 -0.00291142 -0.00023566 -0.00078318 -3.0093e-05 -0.000877705 -0.00078318 -0.00291142 -0.000877705 -0.00315051 -0.00265696 -0.00543695 -0.00291142 -0.00596795 -0.00543695 -0.00881672 -0.00596795 -0.00966827 -0.00291142 -0.00596795 -0.00315051 -0.00647606 -0.00596795 -0.00966827 -0.00647606 -0.0104878 -0.00673094 -0.00966305 -0.00786241 -0.0112216 -0.00966305 -0.0127544 -0.0112216 -0.0147408 -0.00786241 -0.0112216 -0.00881672 -0.0125485 -0.0112216 -0.0147408 -0.0125485 -0.0164406 -0.0127544 -0.0158723 -0.0147408 -0.0182748 -0.0158723 -0.0189094 -0.0182748 -0.0217077 -0.0147408 -0.0182748 -0.0164406 -0.0203362 -0.0182748 -0.0217077 -0.0203362 -0.0241116 -0.00881672 -0.0125485 -0.00966827 -0.0137434 -0.0125485 -0.0164406 -0.0137434 -0.0179815 -0.00966827 -0.0137434 -0.0104878 -0.0149004 -0.0137434 -0.0179815 -0.0149004 -0.0194809 -0.0164406 -0.0203362 -0.0179815 -0.0222136 -0.0203362 -0.0241116 -0.0222136 -0.0263083 -0.0179815 -0.0222136 -0.0194809 -0.0240476 -0.0222136 -0.0263083 -0.0240476 -0.0284614 -3.90492e-05 -4.99311e-05 -0.00620399 -0.00724153 -4.99311e-05 -5.98987e-05 -0.00724153 -0.00819751 -0.00620399 -0.00724153 -0.0113392 -0.0131614 -0.00724153 -0.00819751 -0.0131614 -0.0148399 -5.98987e-05 -6.8908e-05 -0.00819751 -0.00905348 -6.8908e-05 -7.68981e-05 -0.00905348 -0.00979462 -0.00819751 -0.00905348 -0.0148399 -0.016341 -0.00905348 -0.00979462 -0.016341 -0.0176376 -0.0113392 -0.0131614 -0.0155183 -0.0179329 -0.0131614 -0.0148399 -0.0179329 -0.0201551 -0.0155183 -0.0179329 -0.0189094 -0.0217807 -0.0179329 -0.0201551 -0.0217807 -0.0244201 -0.0148399 -0.016341 -0.0201551 -0.0221398 -0.016341 -0.0176376 -0.0221398 -0.023851 -0.0201551 -0.0221398 -0.0244201 -0.0267751 -0.0221398 -0.023851 -0.0267751 -0.0288032 -7.68981e-05 -8.37813e-05 -0.00979462 -0.0104083 -8.37813e-05 -8.94408e-05 -0.0104083 -0.0108835 -0.00979462 -0.0104083 -0.0176376 -0.0187072 -0.0104083 -0.0108835 -0.0187072 -0.0195304 -8.94408e-05 -9.37324e-05 -0.0108835 -0.0112101 -9.37324e-05 -9.65006e-05 -0.0112101 -0.0113795 -0.0108835 -0.0112101 -0.0195304 -0.0200901 -0.0112101 -0.0113795 -0.0200901 -0.0203721 -0.0176376 -0.0187072 -0.023851 -0.0252587 -0.0187072 -0.0195304 -0.0252587 -0.0263375 -0.023851 -0.0252587 -0.0288032 -0.0304694 -0.0252587 -0.0263375 -0.0304694 -0.0317435 -0.0195304 -0.0200901 -0.0263375 -0.0270653 -0.0200901 -0.0203721 -0.0270653 -0.027424 -0.0263375 -0.0270653 -0.0317435 -0.0326003 -0.0270653 -0.027424 -0.0326003 -0.0330185 -0.0189094 -0.0217807 -0.0217077 -0.0249477 -0.0217807 -0.0244201 -0.0249477 -0.027923 -0.0217077 -0.0249477 -0.0241116 -0.0276701 -0.0249477 -0.027923 -0.0276701 -0.0309358 -0.0244201 -0.0267751 -0.027923 -0.0305762 -0.0267751 -0.0288032 -0.0305762 -0.0328608 -0.027923 -0.0305762 -0.0309358 -0.0338485 -0.0305762 -0.0328608 -0.0338485 -0.036359 -0.0241116 -0.0276701 -0.0263083 -0.0301644 -0.0276701 -0.0309358 -0.0301644 -0.0337033 -0.0263083 -0.0301644 -0.0284614 -0.0326167 -0.0301644 -0.0337033 -0.0326167 -0.0364325 -0.0309358 -0.0338485 -0.0337033 -0.0368627 -0.0338485 -0.036359 -0.0368627 -0.0395917 -0.0337033 -0.0368627 -0.0364325 -0.0398452 -0.0368627 -0.0395917 -0.0398452 -0.0428027 -0.0288032 -0.0304694 -0.0328608 -0.034738 -0.0304694 -0.0317435 -0.034738 -0.0361746 -0.0328608 -0.034738 -0.036359 -0.0384259 -0.034738 -0.0361746 -0.0384259 -0.0400134 -0.0317435 -0.0326003 -0.0361746 -0.0371423 -0.0326003 -0.0330185 -0.0371423 -0.0376174 -0.0361746 -0.0371423 -0.0400134 -0.0410907 -0.0371423 -0.0376174 -0.0410907 -0.0416313 -0.036359 -0.0384259 -0.0395917 -0.0418471 -0.0384259 -0.0400134 -0.0418471 -0.0435908 -0.0395917 -0.0418471 -0.0428027 -0.0452604 -0.0418471 -0.0435908 -0.0452604 -0.0471783 -0.0400134 -0.0410907 -0.0435908 -0.0447894 -0.0410907 -0.0416313 -0.0447894 -0.0454131 -0.0435908 -0.0447894 -0.0471783 -0.0485201 -0.0447894 -0.0454131 -0.0485201 -0.0492521 -3.0093e-05 -0.000877705 0.000262796 -0.000986219 -0.000877705 -0.00315051 -0.000986219 -0.00339537 0.000262796 -0.000986219 0.000647529 -0.00111422 -0.000986219 -0.00339537 -0.00111422 -0.00366257 -0.00315051 -0.00647606 -0.00339537 -0.00700166 -0.00647606 -0.0104878 -0.00700166 -0.0113359 -0.00339537 -0.00700166 -0.00366257 -0.00757715 -0.00700166 -0.0113359 -0.00757715 -0.0122616 0.000647529 -0.00111422 0.00112991 -0.00126626 -0.00111422 -0.00366257 -0.00126626 -0.0039651 0.00112991 -0.00126626 0.00171742 -0.00144647 -0.00126626 -0.0039651 -0.00144647 -0.00431382 -0.00366257 -0.00757715 -0.0039651 -0.00822848 -0.00757715 -0.0122616 -0.00822848 -0.0133047 -0.0039651 -0.00822848 -0.00431382 -0.00897755 -0.00822848 -0.0133047 -0.00897755 -0.0144984 -0.0104878 -0.0149004 -0.0113359 -0.0160999 -0.0149004 -0.0194809 -0.0160999 -0.0210383 -0.0113359 -0.0160999 -0.0122616 -0.0174075 -0.0160999 -0.0210383 -0.0174075 -0.0227345 -0.0194809 -0.0240476 -0.0210383 -0.0259562 -0.0240476 -0.0284614 -0.0259562 -0.0307062 -0.0210383 -0.0259562 -0.0227345 -0.0280339 -0.0259562 -0.0307062 -0.0280339 -0.0331497 -0.0122616 -0.0174075 -0.0133047 -0.0188759 -0.0174075 -0.0227345 -0.0188759 -0.0246339 -0.0133047 -0.0188759 -0.0144984 -0.020549 -0.0188759 -0.0246339 -0.020549 -0.0267893 -0.0227345 -0.0280339 -0.0246339 -0.0303551 -0.0280339 -0.0331497 -0.0303551 -0.0358745 -0.0246339 -0.0303551 -0.0267893 -0.0329795 -0.0303551 -0.0358745 -0.0329795 -0.0389451 0.00171742 -0.00144647 0.00241942 -0.0016591 -0.00144647 -0.00431382 -0.0016591 -0.00471906 0.00241942 -0.0016591 0.0032473 -0.00190906 -0.0016591 -0.00471906 -0.00190906 -0.00519216 -0.00431382 -0.00897755 -0.00471906 -0.00984511 -0.00897755 -0.0144984 -0.00984511 -0.0158737 -0.00471906 -0.00984511 -0.00519216 -0.0108535 -0.00984511 -0.0158737 -0.0108535 -0.0174634 0.0032473 -0.00190906 0.00421479 -0.00220248 -0.00190906 -0.00519216 -0.00220248 -0.00574717 0.00421479 -0.00220248 0.00533848 -0.00254736 -0.00220248 -0.00574717 -0.00254736 -0.00640256 -0.00519216 -0.0108535 -0.00574717 -0.0120297 -0.0108535 -0.0174634 -0.0120297 -0.0193055 -0.00574717 -0.0120297 -0.00640256 -0.0134083 -0.0120297 -0.0193055 -0.0134083 -0.0214478 -0.0144984 -0.020549 -0.0158737 -0.0224668 -0.020549 -0.0267893 -0.0224668 -0.0292475 -0.0158737 -0.0224668 -0.0174634 -0.0246702 -0.0224668 -0.0292475 -0.0246702 -0.0320545 -0.0267893 -0.0329795 -0.0292475 -0.035958 -0.0329795 -0.0389451 -0.035958 -0.0424146 -0.0292475 -0.035958 -0.0320545 -0.0393386 -0.035958 -0.0424146 -0.0393386 -0.0463298 -0.0174634 -0.0246702 -0.0193055 -0.0272056 -0.0246702 -0.0320545 -0.0272056 -0.0352603 -0.0193055 -0.0272056 -0.0214478 -0.0301284 -0.0272056 -0.0352603 -0.0301284 -0.0389227 -0.0320545 -0.0393386 -0.0352603 -0.0431709 -0.0393386 -0.0463298 -0.0431709 -0.0507363 -0.0352603 -0.0431709 -0.0389227 -0.047509 -0.0431709 -0.0507363 -0.047509 -0.0556793 -0.0284614 -0.0326167 -0.0307062 -0.0351784 -0.0326167 -0.0364325 -0.0351784 -0.0392898 -0.0307062 -0.0351784 -0.0331497 -0.0379676 -0.0351784 -0.0392898 -0.0379676 -0.0424032 -0.0364325 -0.0398452 -0.0392898 -0.0429759 -0.0398452 -0.0428027 -0.0429759 -0.0461842 -0.0392898 -0.0429759 -0.0424032 -0.0463918 -0.0429759 -0.0461842 -0.0463918 -0.049881 -0.0331497 -0.0379676 -0.0358745 -0.0410738 -0.0379676 -0.0424032 -0.0410738 -0.0458678 -0.0358745 -0.0410738 -0.0389451 -0.0445648 -0.0410738 -0.0458678 -0.0445648 -0.0497539 -0.0424032 -0.0463918 -0.0458678 -0.050193 -0.0463918 -0.049881 -0.050193 -0.0539982 -0.0458678 -0.050193 -0.0497539 -0.0544511 -0.050193 -0.0539982 -0.0544511 -0.0586087 -0.0428027 -0.0452604 -0.0461842 -0.0488689 -0.0452604 -0.0471783 -0.0488689 -0.0509886 -0.0461842 -0.0488689 -0.049881 -0.0528251 -0.0488689 -0.0509886 -0.0528251 -0.0551811 -0.0471783 -0.0485201 -0.0509886 -0.0525037 -0.0485201 -0.0492521 -0.0525037 -0.0533761 -0.0509886 -0.0525037 -0.0551811 -0.0569066 -0.0525037 -0.0533761 -0.0569066 -0.0579584 -0.049881 -0.0528251 -0.0539982 -0.0572385 -0.0528251 -0.0551811 -0.0572385 -0.0598706 -0.0539982 -0.0572385 -0.0586087 -0.0621842 -0.0572385 -0.0598706 -0.0621842 -0.0651356 -0.0551811 -0.0569066 -0.0598706 -0.0618495 -0.0569066 -0.0579584 -0.0618495 -0.0631272 -0.0598706 -0.0618495 -0.0651356 -0.0674166 -0.0618495 -0.0631272 -0.0674166 -0.0689744 -0.0389451 -0.0445648 -0.0424146 -0.0484937 -0.0445648 -0.0497539 -0.0484937 -0.054113 -0.0424146 -0.0484937 -0.0463298 -0.0529043 -0.0484937 -0.054113 -0.0529043 -0.0589844 -0.0497539 -0.0544511 -0.054113 -0.0592162 -0.0544511 -0.0586087 -0.0592162 -0.0637609 -0.054113 -0.0592162 -0.0589844 -0.0645218 -0.0592162 -0.0637609 -0.0645218 -0.0694832 -0.0463298 -0.0529043 -0.0507363 -0.0578346 -0.0529043 -0.0589844 -0.0578346 -0.0643969 -0.0507363 -0.0578346 -0.0556793 -0.0633179 -0.0578346 -0.0643969 -0.0633179 -0.0703688 -0.0589844 -0.0645218 -0.0643969 -0.0703868 -0.0645218 -0.0694832 -0.0703868 -0.0757845 -0.0643969 -0.0703868 -0.0703688 -0.0768128 -0.0703868 -0.0757845 -0.0768128 -0.0826491 -0.0586087 -0.0621842 -0.0637609 -0.0677102 -0.0621842 -0.0651356 -0.0677102 -0.0710253 -0.0637609 -0.0677102 -0.0694832 -0.0738405 -0.0677102 -0.0710253 -0.0738405 -0.0775622 -0.0651356 -0.0674166 -0.0710253 -0.0736611 -0.0674166 -0.0689744 -0.0736611 -0.0755614 -0.0710253 -0.0736611 -0.0775622 -0.0806073 -0.0736611 -0.0755614 -0.0806073 -0.0829193 -0.0694832 -0.0738405 -0.0757845 -0.0805751 -0.0738405 -0.0775622 -0.0805751 -0.0847395 -0.0757845 -0.0805751 -0.0826491 -0.0878821 -0.0805751 -0.0847395 -0.0878821 -0.0925107 -0.0775622 -0.0806073 -0.0847395 -0.0882456 -0.0806073 -0.0829193 -0.0882456 -0.0910416 -0.0847395 -0.0882456 -0.0925107 -0.0965188 -0.0882456 -0.0910416 -0.0965188 -0.0998659 -9.65006e-05 -9.7594e-05 -0.0113795 -0.0113845 -9.7594e-05 -9.68726e-05 -0.0113845 -0.0112198 -0.0113795 -0.0113845 -0.0203721 -0.0203647 -0.0113845 -0.0112198 -0.0203647 -0.0200598 -9.68726e-05 -9.4211e-05 -0.0112198 -0.0108824 -9.4211e-05 -8.95078e-05 -0.0108824 -0.0103727 -0.0112198 -0.0108824 -0.0200598 -0.0194539 -0.0108824 -0.0103727 -0.0194539 -0.0185485 -0.0203721 -0.0203647 -0.027424 -0.0273993 -0.0203647 -0.0200598 -0.0273993 -0.0269815 -0.027424 -0.0273993 -0.0330185 -0.0329817 -0.0273993 -0.0269815 -0.0329817 -0.0324789 -0.0200598 -0.0194539 -0.0269815 -0.0261669 -0.0194539 -0.0185485 -0.0261669 -0.0249586 -0.0269815 -0.0261669 -0.0324789 -0.0315058 -0.0261669 -0.0249586 -0.0315058 -0.0300667 -8.95078e-05 -8.27031e-05 -0.0103727 -0.00969473 -8.27031e-05 -7.37947e-05 -0.00969473 -0.00885754 -0.0103727 -0.00969473 -0.0185485 -0.0173523 -0.00969473 -0.00885754 -0.0173523 -0.0158823 -7.37947e-05 -6.2857e-05 -0.00885754 -0.00787653 -6.2857e-05 -5.00683e-05 -0.00787653 -0.00677513 -0.00885754 -0.00787653 -0.0158823 -0.0141667 -0.00787653 -0.00677513 -0.0141667 -0.0122469 -0.0185485 -0.0173523 -0.0249586 -0.0233692 -0.0173523 -0.0158823 -0.0233692 -0.0214219 -0.0249586 -0.0233692 -0.0300667 -0.0281763 -0.0233692 -0.0214219 -0.0281763 -0.0258623 -0.0158823 -0.0141667 -0.0214219 -0.0191544 -0.0141667 -0.0122469 -0.0191544 -0.016621 -0.0214219 -0.0191544 -0.0258623 -0.0231687 -0.0191544 -0.016621 -0.0231687 -0.0201591 -0.0330185 -0.0329817 -0.0376174 -0.037581 -0.0329817 -0.0324789 -0.037581 -0.0370203 -0.0376174 -0.037581 -0.0416313 -0.0416134 -0.037581 -0.0370203 -0.0416134 -0.0410214 -0.0324789 -0.0315058 -0.0370203 -0.0359299 -0.0315058 -0.0300667 -0.0359299 -0.0343135 -0.0370203 -0.0359299 -0.0410214 -0.0398471 -0.0359299 -0.0343135 -0.0398471 -0.0380921 -0.0416313 -0.0416134 -0.0454131 -0.0454364 -0.0416134 -0.0410214 -0.0454364 -0.0448394 -0.0454131 -0.0454364 -0.0492521 -0.0493439 -0.0454364 -0.0448394 -0.0493439 -0.04877 -0.0410214 -0.0398471 -0.0448394 -0.0436097 -0.0398471 -0.0380921 -0.0436097 -0.0417446 -0.0448394 -0.0436097 -0.04877 -0.0475111 -0.0436097 -0.0417446 -0.0475111 -0.0455583 -0.0300667 -0.0281763 -0.0343135 -0.0321864 -0.0281763 -0.0258623 -0.0321864 -0.0295787 -0.0343135 -0.0321864 -0.0380921 -0.0357708 -0.0321864 -0.0295787 -0.0357708 -0.0329135 -0.0258623 -0.0231687 -0.0295787 -0.0265387 -0.0231687 -0.0201591 -0.0265387 -0.0231363 -0.0295787 -0.0265387 -0.0329135 -0.0295708 -0.0265387 -0.0231363 -0.0295708 -0.0258178 -0.0380921 -0.0357708 -0.0417446 -0.0392552 -0.0357708 -0.0329135 -0.0392552 -0.0361704 -0.0417446 -0.0392552 -0.0455583 -0.0429169 -0.0392552 -0.0361704 -0.0429169 -0.0396118 -0.0329135 -0.0295708 -0.0361704 -0.0325416 -0.0295708 -0.0258178 -0.0325416 -0.0284484 -0.0361704 -0.0325416 -0.0396118 -0.035694 -0.0325416 -0.0284484 -0.035694 -0.0312468 -5.00683e-05 -3.57354e-05 -0.00677513 -0.00558686 -3.57354e-05 -2.0445e-05 -0.00558686 -0.00435704 -0.00677513 -0.00558686 -0.0122469 -0.0101809 -0.00558686 -0.00435704 -0.0101809 -0.00804564 -2.0445e-05 -4.75088e-06 -0.00435704 -0.00314719 -4.75088e-06 8.59368e-06 -0.00314719 -0.00202191 -0.00435704 -0.00314719 -0.00804564 -0.00594107 -0.00314719 -0.00202191 -0.00594107 -0.00397431 -0.0122469 -0.0101809 -0.016621 -0.0138966 -0.0101809 -0.00804564 -0.0138966 -0.0110789 -0.016621 -0.0138966 -0.0201591 -0.01692 -0.0138966 -0.0110789 -0.01692 -0.0135632 -0.00804564 -0.00594107 -0.0110789 -0.00829166 -0.00594107 -0.00397431 -0.00829166 -0.00566798 -0.0110789 -0.00829166 -0.0135632 -0.0102288 -0.00829166 -0.00566798 -0.0102288 -0.00706902 8.59368e-06 1.93944e-05 -0.00202191 -0.00111887 1.93944e-05 5.47664e-05 -0.00111887 -0.000223473 -0.00202191 -0.00111887 -0.00397431 -0.00233552 -0.00111887 -0.000223473 -0.00233552 -0.000818343 5.47664e-05 -1.17756e-05 -0.000223473 -0.000968715 -1.17756e-05 0.0078078 -0.000968715 0.00692693 -0.000223473 -0.000968715 -0.000818343 -0.00118664 -0.000968715 0.00692693 -0.00118664 0.00720676 -0.00397431 -0.00233552 -0.00566798 -0.00342485 -0.00233552 -0.000818343 -0.00342485 -0.00138538 -0.00566798 -0.00342485 -0.00706902 -0.00432219 -0.00342485 -0.00138538 -0.00432219 -0.00184662 -0.000818343 -0.00118664 -0.00138538 -0.00136541 -0.00118664 0.00720676 -0.00136541 0.00704438 -0.00138538 -0.00136541 -0.00184662 -0.00148812 -0.00136541 0.00704438 -0.00148812 0.006931 -0.0201591 -0.01692 -0.0231363 -0.0194671 -0.01692 -0.0135632 -0.0194671 -0.0156542 -0.0231363 -0.0194671 -0.0258178 -0.0217581 -0.0194671 -0.0156542 -0.0217581 -0.0175265 -0.0135632 -0.0102288 -0.0156542 -0.0118523 -0.0102288 -0.00706902 -0.0118523 -0.00823131 -0.0156542 -0.0118523 -0.0175265 -0.013293 -0.0118523 -0.00823131 -0.013293 -0.0092476 -0.0258178 -0.0217581 -0.0284484 -0.0240027 -0.0217581 -0.0175265 -0.0240027 -0.0193526 -0.0284484 -0.0240027 -0.0312468 -0.0263917 -0.0240027 -0.0193526 -0.0263917 -0.0212927 -0.0175265 -0.013293 -0.0193526 -0.0146867 -0.013293 -0.0092476 -0.0146867 -0.0102186 -0.0193526 -0.0146867 -0.0212927 -0.0161611 -0.0146867 -0.0102186 -0.0161611 -0.0112391 -0.00706902 -0.00432219 -0.00823131 -0.00505257 -0.00432219 -0.00184662 -0.00505257 -0.0022083 -0.00823131 -0.00505257 -0.0092476 -0.00567775 -0.00505257 -0.0022083 -0.00567775 -0.00250738 -0.00184662 -0.00148812 -0.0022083 -0.00158215 -0.00148812 0.006931 -0.00158215 0.00688053 -0.0022083 -0.00158215 -0.00250738 -0.00166469 -0.00158215 0.00688053 -0.00166469 0.00689039 -0.0092476 -0.00567775 -0.0102186 -0.00626566 -0.00567775 -0.00250738 -0.00626566 -0.00278115 -0.0102186 -0.00626566 -0.0112391 -0.00687887 -0.00626566 -0.00278115 -0.00687887 -0.00306247 -0.00250738 -0.00166469 -0.00278115 -0.00174747 -0.00166469 0.00689039 -0.00174747 0.00696382 -0.00278115 -0.00174747 -0.00306247 -0.0018406 -0.00174747 0.00696382 -0.0018406 0.00710003 -0.0492521 -0.0493439 -0.0533761 -0.0535694 -0.0493439 -0.04877 -0.0535694 -0.0530501 -0.0533761 -0.0535694 -0.0579584 -0.0582928 -0.0535694 -0.0530501 -0.0582928 -0.0578667 -0.04877 -0.0475111 -0.0530501 -0.0517902 -0.0475111 -0.0455583 -0.0517902 -0.0497713 -0.0530501 -0.0517902 -0.0578667 -0.0566401 -0.0517902 -0.0497713 -0.0566401 -0.0545815 -0.0579584 -0.0582928 -0.0631272 -0.0636514 -0.0582928 -0.0578667 -0.0636514 -0.0633672 -0.0631272 -0.0636514 -0.0689744 -0.069748 -0.0636514 -0.0633672 -0.069748 -0.0696687 -0.0578667 -0.0566401 -0.0633672 -0.0622195 -0.0566401 -0.0545815 -0.0622195 -0.0601591 -0.0633672 -0.0622195 -0.0696687 -0.0686627 -0.0622195 -0.0601591 -0.0686627 -0.0666572 -0.0455583 -0.0429169 -0.0497713 -0.0469897 -0.0429169 -0.0396118 -0.0469897 -0.0434636 -0.0497713 -0.0469897 -0.0545815 -0.0516742 -0.0469897 -0.0434636 -0.0516742 -0.0479254 -0.0396118 -0.035694 -0.0434636 -0.0392412 -0.035694 -0.0312468 -0.0392412 -0.0344088 -0.0434636 -0.0392412 -0.0479254 -0.043377 -0.0392412 -0.0344088 -0.043377 -0.0381165 -0.0545815 -0.0516742 -0.0601591 -0.0571505 -0.0516742 -0.0479254 -0.0571505 -0.0531841 -0.0601591 -0.0571505 -0.0666572 -0.0635912 -0.0571505 -0.0531841 -0.0635912 -0.0594293 -0.0479254 -0.043377 -0.0531841 -0.0482901 -0.043377 -0.0381165 -0.0482901 -0.0425538 -0.0531841 -0.0482901 -0.0594293 -0.0541815 -0.0482901 -0.0425538 -0.0541815 -0.0479239 -0.0689744 -0.069748 -0.0755614 -0.0766568 -0.069748 -0.0696687 -0.0766568 -0.0768634 -0.0755614 -0.0766568 -0.0829193 -0.0844221 -0.0766568 -0.0768634 -0.0844221 -0.0850168 -0.0696687 -0.0686627 -0.0768634 -0.0760852 -0.0686627 -0.0666572 -0.0760852 -0.0742197 -0.0768634 -0.0760852 -0.0850168 -0.084582 -0.0760852 -0.0742197 -0.084582 -0.0829792 -0.0829193 -0.0844221 -0.0910416 -0.0930484 -0.0844221 -0.0850168 -0.0930484 -0.0941545 -0.0910416 -0.0930484 -0.0998659 -0.102477 -0.0930484 -0.0941545 -0.102477 -0.104233 -0.0850168 -0.084582 -0.0941545 -0.0942122 -0.084582 -0.0829792 -0.0942122 -0.0930411 -0.0941545 -0.0942122 -0.104233 -0.104964 -0.0942122 -0.0930411 -0.104964 -0.104445 -0.0666572 -0.0635912 -0.0742197 -0.0711704 -0.0635912 -0.0594293 -0.0711704 -0.0668648 -0.0742197 -0.0711704 -0.0829792 -0.0800651 -0.0711704 -0.0668648 -0.0800651 -0.0757138 -0.0594293 -0.0541815 -0.0668648 -0.0612794 -0.0541815 -0.0479239 -0.0612794 -0.054469 -0.0668648 -0.0612794 -0.0757138 -0.0698495 -0.0612794 -0.054469 -0.0698495 -0.062486 -0.0829792 -0.0800651 -0.0930411 -0.0904392 -0.0800651 -0.0757138 -0.0904392 -0.0862074 -0.0930411 -0.0904392 -0.104445 -0.1