# vtk DataFile Version 3.0
#This file was generated by the deal.II library on 2026/1/5 at 14:19:28
ASCII
DATASET UNSTRUCTURED_GRID

POINTS 4096 double
0 0 0
0.03125 0 0
0 0.03125 0
0.03125 0.03125 0
0.03125 0 0
0.0625 0 0
0.03125 0.03125 0
0.0625 0.03125 0
0 0.03125 0
0.03125 0.03125 0
0 0.0625 0
0.03125 0.0625 0
0.03125 0.03125 0
0.0625 0.03125 0
0.03125 0.0625 0
0.0625 0.0625 0
0.0625 0 0
0.09375 0 0
0.0625 0.03125 0
0.09375 0.03125 0
0.09375 0 0
0.125 0 0
0.09375 0.03125 0
0.125 0.03125 0
0.0625 0.03125 0
0.09375 0.03125 0
0.0625 0.0625 0
0.09375 0.0625 0
0.09375 0.03125 0
0.125 0.03125 0
0.09375 0.0625 0
0.125 0.0625 0
0 0.0625 0
0.03125 0.0625 0
0 0.09375 0
0.03125 0.09375 0
0.03125 0.0625 0
0.0625 0.0625 0
0.03125 0.09375 0
0.0625 0.09375 0
0 0.09375 0
0.03125 0.09375 0
0 0.125 0
0.03125 0.125 0
0.03125 0.09375 0
0.0625 0.09375 0
0.03125 0.125 0
0.0625 0.125 0
0.0625 0.0625 0
0.09375 0.0625 0
0.0625 0.09375 0
0.09375 0.09375 0
0.09375 0.0625 0
0.125 0.0625 0
0.09375 0.09375 0
0.125 0.09375 0
0.0625 0.09375 0
0.09375 0.09375 0
0.0625 0.125 0
0.09375 0.125 0
0.09375 0.09375 0
0.125 0.09375 0
0.09375 0.125 0
0.125 0.125 0
0.125 0 0
0.15625 0 0
0.125 0.03125 0
0.15625 0.03125 0
0.15625 0 0
0.1875 0 0
0.15625 0.03125 0
0.1875 0.03125 0
0.125 0.03125 0
0.15625 0.03125 0
0.125 0.0625 0
0.15625 0.0625 0
0.15625 0.03125 0
0.1875 0.03125 0
0.15625 0.0625 0
0.1875 0.0625 0
0.1875 0 0
0.21875 0 0
0.1875 0.03125 0
0.21875 0.03125 0
0.21875 0 0
0.25 0 0
0.21875 0.03125 0
0.25 0.03125 0
0.1875 0.03125 0
0.21875 0.03125 0
0.1875 0.0625 0
0.21875 0.0625 0
0.21875 0.03125 0
0.25 0.03125 0
0.21875 0.0625 0
0.25 0.0625 0
0.125 0.0625 0
0.15625 0.0625 0
0.125 0.09375 0
0.15625 0.09375 0
0.15625 0.0625 0
0.1875 0.0625 0
0.15625 0.09375 0
0.1875 0.09375 0
0.125 0.09375 0
0.15625 0.09375 0
0.125 0.125 0
0.15625 0.125 0
0.15625 0.09375 0
0.1875 0.09375 0
0.15625 0.125 0
0.1875 0.125 0
0.1875 0.0625 0
0.21875 0.0625 0
0.1875 0.09375 0
0.21875 0.09375 0
0.21875 0.0625 0
0.25 0.0625 0
0.21875 0.09375 0
0.25 0.09375 0
0.1875 0.09375 0
0.21875 0.09375 0
0.1875 0.125 0
0.21875 0.125 0
0.21875 0.09375 0
0.25 0.09375 0
0.21875 0.125 0
0.25 0.125 0
0 0.125 0
0.03125 0.125 0
0 0.15625 0
0.03125 0.15625 0
0.03125 0.125 0
0.0625 0.125 0
0.03125 0.15625 0
0.0625 0.15625 0
0 0.15625 0
0.03125 0.15625 0
0 0.1875 0
0.03125 0.1875 0
0.03125 0.15625 0
0.0625 0.15625 0
0.03125 0.1875 0
0.0625 0.1875 0
0.0625 0.125 0
0.09375 0.125 0
0.0625 0.15625 0
0.09375 0.15625 0
0.09375 0.125 0
0.125 0.125 0
0.09375 0.15625 0
0.125 0.15625 0
0.0625 0.15625 0
0.09375 0.15625 0
0.0625 0.1875 0
0.09375 0.1875 0
0.09375 0.15625 0
0.125 0.15625 0
0.09375 0.1875 0
0.125 0.1875 0
0 0.1875 0
0.03125 0.1875 0
0 0.21875 0
0.03125 0.21875 0
0.03125 0.1875 0
0.0625 0.1875 0
0.03125 0.21875 0
0.0625 0.21875 0
0 0.21875 0
0.03125 0.21875 0
0 0.25 0
0.03125 0.25 0
0.03125 0.21875 0
0.0625 0.21875 0
0.03125 0.25 0
0.0625 0.25 0
0.0625 0.1875 0
0.09375 0.1875 0
0.0625 0.21875 0
0.09375 0.21875 0
0.09375 0.1875 0
0.125 0.1875 0
0.09375 0.21875 0
0.125 0.21875 0
0.0625 0.21875 0
0.09375 0.21875 0
0.0625 0.25 0
0.09375 0.25 0
0.09375 0.21875 0
0.125 0.21875 0
0.09375 0.25 0
0.125 0.25 0
0.125 0.125 0
0.15625 0.125 0
0.125 0.15625 0
0.15625 0.15625 0
0.15625 0.125 0
0.1875 0.125 0
0.15625 0.15625 0
0.1875 0.15625 0
0.125 0.15625 0
0.15625 0.15625 0
0.125 0.1875 0
0.15625 0.1875 0
0.15625 0.15625 0
0.1875 0.15625 0
0.15625 0.1875 0
0.1875 0.1875 0
0.1875 0.125 0
0.21875 0.125 0
0.1875 0.15625 0
0.21875 0.15625 0
0.21875 0.125 0
0.25 0.125 0
0.21875 0.15625 0
0.25 0.15625 0
0.1875 0.15625 0
0.21875 0.15625 0
0.1875 0.1875 0
0.21875 0.1875 0
0.21875 0.15625 0
0.25 0.15625 0
0.21875 0.1875 0
0.25 0.1875 0
0.125 0.1875 0
0.15625 0.1875 0
0.125 0.21875 0
0.15625 0.21875 0
0.15625 0.1875 0
0.1875 0.1875 0
0.15625 0.21875 0
0.1875 0.21875 0
0.125 0.21875 0
0.15625 0.21875 0
0.125 0.25 0
0.15625 0.25 0
0.15625 0.21875 0
0.1875 0.21875 0
0.15625 0.25 0
0.1875 0.25 0
0.1875 0.1875 0
0.21875 0.1875 0
0.1875 0.21875 0
0.21875 0.21875 0
0.21875 0.1875 0
0.25 0.1875 0
0.21875 0.21875 0
0.25 0.21875 0
0.1875 0.21875 0
0.21875 0.21875 0
0.1875 0.25 0
0.21875 0.25 0
0.21875 0.21875 0
0.25 0.21875 0
0.21875 0.25 0
0.25 0.25 0
0.25 0 0
0.28125 0 0
0.25 0.03125 0
0.28125 0.03125 0
0.28125 0 0
0.3125 0 0
0.28125 0.03125 0
0.3125 0.03125 0
0.25 0.03125 0
0.28125 0.03125 0
0.25 0.0625 0
0.28125 0.0625 0
0.28125 0.03125 0
0.3125 0.03125 0
0.28125 0.0625 0
0.3125 0.0625 0
0.3125 0 0
0.34375 0 0
0.3125 0.03125 0
0.34375 0.03125 0
0.34375 0 0
0.375 0 0
0.34375 0.03125 0
0.375 0.03125 0
0.3125 0.03125 0
0.34375 0.03125 0
0.3125 0.0625 0
0.34375 0.0625 0
0.34375 0.03125 0
0.375 0.03125 0
0.34375 0.0625 0
0.375 0.0625 0
0.25 0.0625 0
0.28125 0.0625 0
0.25 0.09375 0
0.28125 0.09375 0
0.28125 0.0625 0
0.3125 0.0625 0
0.28125 0.09375 0
0.3125 0.09375 0
0.25 0.09375 0
0.28125 0.09375 0
0.25 0.125 0
0.28125 0.125 0
0.28125 0.09375 0
0.3125 0.09375 0
0.28125 0.125 0
0.3125 0.125 0
0.3125 0.0625 0
0.34375 0.0625 0
0.3125 0.09375 0
0.34375 0.09375 0
0.34375 0.0625 0
0.375 0.0625 0
0.34375 0.09375 0
0.375 0.09375 0
0.3125 0.09375 0
0.34375 0.09375 0
0.3125 0.125 0
0.34375 0.125 0
0.34375 0.09375 0
0.375 0.09375 0
0.34375 0.125 0
0.375 0.125 0
0.375 0 0
0.40625 0 0
0.375 0.03125 0
0.40625 0.03125 0
0.40625 0 0
0.4375 0 0
0.40625 0.03125 0
0.4375 0.03125 0
0.375 0.03125 0
0.40625 0.03125 0
0.375 0.0625 0
0.40625 0.0625 0
0.40625 0.03125 0
0.4375 0.03125 0
0.40625 0.0625 0
0.4375 0.0625 0
0.4375 0 0
0.46875 0 0
0.4375 0.03125 0
0.46875 0.03125 0
0.46875 0 0
0.5 0 0
0.46875 0.03125 0
0.5 0.03125 0
0.4375 0.03125 0
0.46875 0.03125 0
0.4375 0.0625 0
0.46875 0.0625 0
0.46875 0.03125 0
0.5 0.03125 0
0.46875 0.0625 0
0.5 0.0625 0
0.375 0.0625 0
0.40625 0.0625 0
0.375 0.09375 0
0.40625 0.09375 0
0.40625 0.0625 0
0.4375 0.0625 0
0.40625 0.09375 0
0.4375 0.09375 0
0.375 0.09375 0
0.40625 0.09375 0
0.375 0.125 0
0.40625 0.125 0
0.40625 0.09375 0
0.4375 0.09375 0
0.40625 0.125 0
0.4375 0.125 0
0.4375 0.0625 0
0.46875 0.0625 0
0.4375 0.09375 0
0.46875 0.09375 0
0.46875 0.0625 0
0.5 0.0625 0
0.46875 0.09375 0
0.5 0.09375 0
0.4375 0.09375 0
0.46875 0.09375 0
0.4375 0.125 0
0.46875 0.125 0
0.46875 0.09375 0
0.5 0.09375 0
0.46875 0.125 0
0.5 0.125 0
0.25 0.125 0
0.28125 0.125 0
0.25 0.15625 0
0.28125 0.15625 0
0.28125 0.125 0
0.3125 0.125 0
0.28125 0.15625 0
0.3125 0.15625 0
0.25 0.15625 0
0.28125 0.15625 0
0.25 0.1875 0
0.28125 0.1875 0
0.28125 0.15625 0
0.3125 0.15625 0
0.28125 0.1875 0
0.3125 0.1875 0
0.3125 0.125 0
0.34375 0.125 0
0.3125 0.15625 0
0.34375 0.15625 0
0.34375 0.125 0
0.375 0.125 0
0.34375 0.15625 0
0.375 0.15625 0
0.3125 0.15625 0
0.34375 0.15625 0
0.3125 0.1875 0
0.34375 0.1875 0
0.34375 0.15625 0
0.375 0.15625 0
0.34375 0.1875 0
0.375 0.1875 0
0.25 0.1875 0
0.28125 0.1875 0
0.25 0.21875 0
0.28125 0.21875 0
0.28125 0.1875 0
0.3125 0.1875 0
0.28125 0.21875 0
0.3125 0.21875 0
0.25 0.21875 0
0.28125 0.21875 0
0.25 0.25 0
0.28125 0.25 0
0.28125 0.21875 0
0.3125 0.21875 0
0.28125 0.25 0
0.3125 0.25 0
0.3125 0.1875 0
0.34375 0.1875 0
0.3125 0.21875 0
0.34375 0.21875 0
0.34375 0.1875 0
0.375 0.1875 0
0.34375 0.21875 0
0.375 0.21875 0
0.3125 0.21875 0
0.34375 0.21875 0
0.3125 0.25 0
0.34375 0.25 0
0.34375 0.21875 0
0.375 0.21875 0
0.34375 0.25 0
0.375 0.25 0
0.375 0.125 0
0.40625 0.125 0
0.375 0.15625 0
0.40625 0.15625 0
0.40625 0.125 0
0.4375 0.125 0
0.40625 0.15625 0
0.4375 0.15625 0
0.375 0.15625 0
0.40625 0.15625 0
0.375 0.1875 0
0.40625 0.1875 0
0.40625 0.15625 0
0.4375 0.15625 0
0.40625 0.1875 0
0.4375 0.1875 0
0.4375 0.125 0
0.46875 0.125 0
0.4375 0.15625 0
0.46875 0.15625 0
0.46875 0.125 0
0.5 0.125 0
0.46875 0.15625 0
0.5 0.15625 0
0.4375 0.15625 0
0.46875 0.15625 0
0.4375 0.1875 0
0.46875 0.1875 0
0.46875 0.15625 0
0.5 0.15625 0
0.46875 0.1875 0
0.5 0.1875 0
0.375 0.1875 0
0.40625 0.1875 0
0.375 0.21875 0
0.40625 0.21875 0
0.40625 0.1875 0
0.4375 0.1875 0
0.40625 0.21875 0
0.4375 0.21875 0
0.375 0.21875 0
0.40625 0.21875 0
0.375 0.25 0
0.40625 0.25 0
0.40625 0.21875 0
0.4375 0.21875 0
0.40625 0.25 0
0.4375 0.25 0
0.4375 0.1875 0
0.46875 0.1875 0
0.4375 0.21875 0
0.46875 0.21875 0
0.46875 0.1875 0
0.5 0.1875 0
0.46875 0.21875 0
0.5 0.21875 0
0.4375 0.21875 0
0.46875 0.21875 0
0.4375 0.25 0
0.46875 0.25 0
0.46875 0.21875 0
0.5 0.21875 0
0.46875 0.25 0
0.5 0.25 0
0 0.25 0
0.03125 0.25 0
0 0.28125 0
0.03125 0.28125 0
0.03125 0.25 0
0.0625 0.25 0
0.03125 0.28125 0
0.0625 0.28125 0
0 0.28125 0
0.03125 0.28125 0
0 0.3125 0
0.03125 0.3125 0
0.03125 0.28125 0
0.0625 0.28125 0
0.03125 0.3125 0
0.0625 0.3125 0
0.0625 0.25 0
0.09375 0.25 0
0.0625 0.28125 0
0.09375 0.28125 0
0.09375 0.25 0
0.125 0.25 0
0.09375 0.28125 0
0.125 0.28125 0
0.0625 0.28125 0
0.09375 0.28125 0
0.0625 0.3125 0
0.09375 0.3125 0
0.09375 0.28125 0
0.125 0.28125 0
0.09375 0.3125 0
0.125 0.3125 0
0 0.3125 0
0.03125 0.3125 0
0 0.34375 0
0.03125 0.34375 0
0.03125 0.3125 0
0.0625 0.3125 0
0.03125 0.34375 0
0.0625 0.34375 0
0 0.34375 0
0.03125 0.34375 0
0 0.375 0
0.03125 0.375 0
0.03125 0.34375 0
0.0625 0.34375 0
0.03125 0.375 0
0.0625 0.375 0
0.0625 0.3125 0
0.09375 0.3125 0
0.0625 0.34375 0
0.09375 0.34375 0
0.09375 0.3125 0
0.125 0.3125 0
0.09375 0.34375 0
0.125 0.34375 0
0.0625 0.34375 0
0.09375 0.34375 0
0.0625 0.375 0
0.09375 0.375 0
0.09375 0.34375 0
0.125 0.34375 0
0.09375 0.375 0
0.125 0.375 0
0.125 0.25 0
0.15625 0.25 0
0.125 0.28125 0
0.15625 0.28125 0
0.15625 0.25 0
0.1875 0.25 0
0.15625 0.28125 0
0.1875 0.28125 0
0.125 0.28125 0
0.15625 0.28125 0
0.125 0.3125 0
0.15625 0.3125 0
0.15625 0.28125 0
0.1875 0.28125 0
0.15625 0.3125 0
0.1875 0.3125 0
0.1875 0.25 0
0.21875 0.25 0
0.1875 0.28125 0
0.21875 0.28125 0
0.21875 0.25 0
0.25 0.25 0
0.21875 0.28125 0
0.25 0.28125 0
0.1875 0.28125 0
0.21875 0.28125 0
0.1875 0.3125 0
0.21875 0.3125 0
0.21875 0.28125 0
0.25 0.28125 0
0.21875 0.3125 0
0.25 0.3125 0
0.125 0.3125 0
0.15625 0.3125 0
0.125 0.34375 0
0.15625 0.34375 0
0.15625 0.3125 0
0.1875 0.3125 0
0.15625 0.34375 0
0.1875 0.34375 0
0.125 0.34375 0
[...]
POINT_DATA 4096
SCALARS u_x double 1
LOOKUP_TABLE default
1.1704e-05 8.48929e-06 -5.84657e-05 -0.000261239 8.48929e-06 -7.39979e-06 -0.000261239 -0.00084953 -5.84657e-05 -0.000261239 -8.53322e-05 -0.000412857 -0.000261239 -0.00084953 -0.000412857 -0.0012643 -7.39979e-06 -3.27257e-05 -0.00084953 -0.00156823 -3.27257e-05 -5.7148e-05 -0.00156823 -0.00230709 -0.00084953 -0.00156823 -0.0012643 -0.00227692 -0.00156823 -0.00230709 -0.00227692 -0.00331148 -8.53322e-05 -0.000412857 3.05167e-05 -0.000479104 -0.000412857 -0.0012643 -0.000479104 -0.00140617 3.05167e-05 -0.000479104 0.000293187 -0.0005356 -0.000479104 -0.00140617 -0.0005356 -0.00146089 -0.0012643 -0.00227692 -0.00140617 -0.00253084 -0.00227692 -0.00331148 -0.00253084 -0.00366726 -0.00140617 -0.00253084 -0.00146089 -0.00264868 -0.00253084 -0.00366726 -0.00264868 -0.00383403 -5.7148e-05 -8.0114e-05 -0.00230709 -0.0030256 -8.0114e-05 -0.000101819 -0.0030256 -0.00371046 -0.00230709 -0.0030256 -0.00331148 -0.00431925 -0.0030256 -0.00371046 -0.00431925 -0.00528045 -0.000101819 -0.000122242 -0.00371046 -0.00435393 -0.000122242 -0.000141204 -0.00435393 -0.00494931 -0.00371046 -0.00435393 -0.00528045 -0.00618347 -0.00435393 -0.00494931 -0.00618347 -0.00701858 -0.00331148 -0.00431925 -0.00366726 -0.00477408 -0.00431925 -0.00528045 -0.00477408 -0.00582923 -0.00366726 -0.00477408 -0.00383403 -0.00498927 -0.00477408 -0.00582923 -0.00498927 -0.00608937 -0.00528045 -0.00618347 -0.00582923 -0.00682035 -0.00618347 -0.00701858 -0.00682035 -0.0077366 -0.00582923 -0.00682035 -0.00608937 -0.00712231 -0.00682035 -0.0077366 -0.00712231 -0.00807676 0.000293187 -0.0005356 0.000700902 -0.000611524 -0.0005356 -0.00146089 -0.000611524 -0.00150698 0.000700902 -0.000611524 0.00125618 -0.000713337 -0.000611524 -0.00150698 -0.000713337 -0.00156356 -0.00146089 -0.00264868 -0.00150698 -0.00276036 -0.00264868 -0.00383403 -0.00276036 -0.0039925 -0.00150698 -0.00276036 -0.00156356 -0.0028988 -0.00276036 -0.0039925 -0.0028988 -0.00418792 0.00125618 -0.000713337 0.00196514 -0.000842745 -0.000713337 -0.00156356 -0.000842745 -0.00163424 0.00196514 -0.000842745 0.0028363 -0.00100133 -0.000842745 -0.00163424 -0.00100133 -0.0017204 -0.00156356 -0.0028988 -0.00163424 -0.00307137 -0.0028988 -0.00418792 -0.00307137 -0.0044307 -0.00163424 -0.00307137 -0.0017204 -0.00328136 -0.00307137 -0.0044307 -0.00328136 -0.00472554 -0.00383403 -0.00498927 -0.0039925 -0.00519568 -0.00498927 -0.00608937 -0.00519568 -0.0063399 -0.0039925 -0.00519568 -0.00418792 -0.00545026 -0.00519568 -0.0063399 -0.00545026 -0.00664888 -0.00608937 -0.00712231 -0.0063399 -0.00741362 -0.00712231 -0.00807676 -0.00741362 -0.00840506 -0.0063399 -0.00741362 -0.00664888 -0.0077728 -0.00741362 -0.00840506 -0.0077728 -0.00880959 -0.00418792 -0.00545026 -0.0044307 -0.00576602 -0.00545026 -0.00664888 -0.00576602 -0.00703167 -0.0044307 -0.00576602 -0.00472554 -0.00614888 -0.00576602 -0.00703167 -0.00614888 -0.00749513 -0.00664888 -0.0077728 -0.00703167 -0.00821728 -0.0077728 -0.00880959 -0.00821728 -0.00930961 -0.00703167 -0.00821728 -0.00749513 -0.00875463 -0.00821728 -0.00930961 -0.00875463 -0.00991318 -0.000141204 -0.000158502 -0.00494931 -0.00549044 -0.000158502 -0.000173959 -0.00549044 -0.00597178 -0.00494931 -0.00549044 -0.00701858 -0.0077771 -0.00549044 -0.00597178 -0.0077771 -0.00845125 -0.000173959 -0.000187412 -0.00597178 -0.0063884 -0.000187412 -0.000198707 -0.0063884 -0.00673611 -0.00597178 -0.0063884 -0.00845125 -0.00903425 -0.0063884 -0.00673611 -0.00903425 -0.0095203 -0.00701858 -0.0077771 -0.0077366 -0.00856845 -0.0077771 -0.00845125 -0.00856845 -0.00930741 -0.0077366 -0.00856845 -0.00807676 -0.00894288 -0.00856845 -0.00930741 -0.00894288 -0.00971192 -0.00845125 -0.00903425 -0.00930741 -0.00994612 -0.00903425 -0.0095203 -0.00994612 -0.0104783 -0.00930741 -0.00994612 -0.00971192 -0.0103763 -0.00994612 -0.0104783 -0.0103763 -0.0109298 -0.000198707 -0.000207711 -0.00673611 -0.0070114 -0.000207711 -0.000214327 -0.0070114 -0.00721152 -0.00673611 -0.0070114 -0.0095203 -0.0099046 -0.0070114 -0.00721152 -0.0099046 -0.0101834 -0.000214327 -0.000218486 -0.00721152 -0.00733443 -0.000218486 -0.000220133 -0.00733443 -0.00737883 -0.00721152 -0.00733443 -0.0101834 -0.0103539 -0.00733443 -0.00737883 -0.0103539 -0.0104145 -0.0095203 -0.0099046 -0.0104783 -0.0108988 -0.0099046 -0.0101834 -0.0108988 -0.0112037 -0.0104783 -0.0108988 -0.0109298 -0.011367 -0.0108988 -0.0112037 -0.011367 -0.0116839 -0.0101834 -0.0103539 -0.0112037 -0.0113899 -0.0103539 -0.0104145 -0.0113899 -0.0114557 -0.0112037 -0.0113899 -0.0116839 -0.0118776 -0.0113899 -0.0114557 -0.0118776 -0.0119462 -0.00807676 -0.00894288 -0.00840506 -0.00930415 -0.00894288 -0.00971192 -0.00930415 -0.010102 -0.00840506 -0.00930415 -0.00880959 -0.00974894 -0.00930415 -0.010102 -0.00974894 -0.0105818 -0.00971192 -0.0103763 -0.010102 -0.0107909 -0.0103763 -0.0109298 -0.0107909 -0.0113645 -0.010102 -0.0107909 -0.0105818 -0.0113004 -0.0107909 -0.0113645 -0.0113004 -0.0118984 -0.00880959 -0.00974894 -0.00930961 -0.0102981 -0.00974894 -0.0105818 -0.0102981 -0.0111735 -0.00930961 -0.0102981 -0.00991318 -0.0109599 -0.0102981 -0.0111735 -0.0109599 -0.0118855 -0.0105818 -0.0113004 -0.0111735 -0.011928 -0.0113004 -0.0118984 -0.011928 -0.0125554 -0.0111735 -0.011928 -0.0118855 -0.0126823 -0.011928 -0.0125554 -0.0126823 -0.013344 -0.0109298 -0.011367 -0.0113645 -0.0118175 -0.011367 -0.0116839 -0.0118175 -0.012146 -0.0113645 -0.0118175 -0.0118984 -0.0123705 -0.0118175 -0.012146 -0.0123705 -0.012713 -0.0116839 -0.0118776 -0.012146 -0.012347 -0.0118776 -0.0119462 -0.012347 -0.0124185 -0.012146 -0.012347 -0.012713 -0.0129227 -0.012347 -0.0124185 -0.0129227 -0.012998 -0.0118984 -0.0123705 -0.0125554 -0.0130506 -0.0123705 -0.012713 -0.0130506 -0.0134097 -0.0125554 -0.0130506 -0.013344 -0.013866 -0.0130506 -0.0134097 -0.013866 -0.0142446 -0.012713 -0.0129227 -0.0134097 -0.01363 -0.0129227 -0.012998 -0.01363 -0.0137098 -0.0134097 -0.01363 -0.0142446 -0.0144773 -0.01363 -0.0137098 -0.0144773 -0.0145623 0.0028363 -0.00100133 0.00388037 -0.00119116 -0.00100133 -0.0017204 -0.00119116 -0.0018236 0.00388037 -0.00119116 0.0051104 -0.00141485 -0.00119116 -0.0018236 -0.00141485 -0.00194593 -0.0017204 -0.00328136 -0.0018236 -0.00353235 -0.00328136 -0.00472554 -0.00353235 -0.00507741 -0.0018236 -0.00353235 -0.00194593 -0.00382883 -0.00353235 -0.00507741 -0.00382883 -0.00549252 0.0051104 -0.00141485 0.00654203 -0.00167565 -0.00141485 -0.00194593 -0.00167565 -0.00209015 0.00654203 -0.00167565 0.00819371 -0.00197747 -0.00167565 -0.00209015 -0.00197747 -0.00225984 -0.00194593 -0.00382883 -0.00209015 -0.00417657 -0.00382883 -0.00549252 -0.00417657 -0.00597871 -0.00209015 -0.00417657 -0.00225984 -0.00458293 -0.00417657 -0.00597871 -0.00458293 -0.00654594 -0.00472554 -0.00614888 -0.00507741 -0.00660506 -0.00614888 -0.00749513 -0.00660506 -0.00804638 -0.00507741 -0.00660506 -0.00549252 -0.00714223 -0.00660506 -0.00804638 -0.00714223 -0.00869417 -0.00749513 -0.00875463 -0.00804638 -0.00939259 -0.00875463 -0.00991318 -0.00939259 -0.0106284 -0.00804638 -0.00939259 -0.00869417 -0.0101406 -0.00939259 -0.0106284 -0.0101406 -0.011465 -0.00549252 -0.00714223 -0.00597871 -0.00777 -0.00714223 -0.00869417 -0.00777 -0.00944934 -0.00597871 -0.00777 -0.00654594 -0.00850048 -0.00777 -0.00944934 -0.00850048 -0.0103254 -0.00869417 -0.0101406 -0.00944934 -0.0110102 -0.0101406 -0.011465 -0.0110102 -0.0124348 -0.00944934 -0.0110102 -0.0103254 -0.0120156 -0.0110102 -0.0124348 -0.0120156 -0.013552 0.00819371 -0.00197747 0.0100872 -0.00232514 -0.00197747 -0.00225984 -0.00232514 -0.0024597 0.0100872 -0.00232514 0.0122481 -0.00272455 -0.00232514 -0.0024597 -0.00272455 -0.00269598 -0.00225984 -0.00458293 -0.0024597 -0.00505737 -0.00458293 -0.00654594 -0.00505737 -0.00720693 -0.0024597 -0.00505737 -0.00269598 -0.00561218 -0.00505737 -0.00720693 -0.00561218 -0.0079781 0.0122481 -0.00272455 0.0147066 -0.00318302 -0.00272455 -0.00269598 -0.00318302 -0.00297708 0.0147066 -0.00318302 0.0174986 -0.00370976 -0.00318302 -0.00297708 -0.00370976 -0.00331443 -0.00269598 -0.00561218 -0.00297708 -0.00626348 -0.00561218 -0.0079781 -0.00626348 -0.00888081 -0.00297708 -0.00626348 -0.00331443 -0.00703281 -0.00626348 -0.00888081 -0.00703281 -0.00994328 -0.00654594 -0.00850048 -0.00720693 -0.00934895 -0.00850048 -0.0103254 -0.00934895 -0.0113392 -0.00720693 -0.00934895 -0.0079781 -0.0103349 -0.00934895 -0.0113392 -0.0103349 -0.0125119 -0.0103254 -0.0120156 -0.0113392 -0.0131742 -0.0120156 -0.013552 -0.0131742 -0.014834 -0.0113392 -0.0131742 -0.0125119 -0.0145077 -0.0131742 -0.014834 -0.0145077 -0.0163014 -0.0079781 -0.0103349 -0.00888081 -0.0114834 -0.0103349 -0.0125119 -0.0114834 -0.0138703 -0.00888081 -0.0114834 -0.00994328 -0.0128272 -0.0114834 -0.0138703 -0.0128272 -0.0154487 -0.0125119 -0.0145077 -0.0138703 -0.0160428 -0.0145077 -0.0163014 -0.0160428 -0.0179798 -0.0138703 -0.0160428 -0.0154487 -0.017813 -0.0160428 -0.0179798 -0.017813 -0.0198998 -0.00991318 -0.0109599 -0.0106284 -0.0117427 -0.0109599 -0.0118855 -0.0117427 -0.0127261 -0.0106284 -0.0117427 -0.011465 -0.0126562 -0.0117427 -0.0127261 -0.0126562 -0.0137048 -0.0118855 -0.0126823 -0.0127261 -0.0135712 -0.0126823 -0.013344 -0.0135712 -0.014272 -0.0127261 -0.0135712 -0.0137048 -0.0146039 -0.0135712 -0.014272 -0.0146039 -0.0153482 -0.011465 -0.0126562 -0.0124348 -0.013712 -0.0126562 -0.0137048 -0.013712 -0.0148327 -0.0124348 -0.013712 -0.013552 -0.0149239 -0.013712 -0.0148327 -0.0149239 -0.0161229 -0.0137048 -0.0146039 -0.0148327 -0.0157909 -0.0146039 -0.0153482 -0.0157909 -0.0165823 -0.0148327 -0.0157909 -0.0161229 -0.0171444 -0.0157909 -0.0165823 -0.0171444 -0.0179854 -0.013344 -0.013866 -0.014272 -0.0148244 -0.013866 -0.0142446 -0.0148244 -0.015225 -0.014272 -0.0148244 -0.0153482 -0.015934 -0.0148244 -0.015225 -0.015934 -0.0163588 -0.0142446 -0.0144773 -0.015225 -0.0154716 -0.0144773 -0.0145623 -0.0154716 -0.0155628 -0.015225 -0.0154716 -0.0163588 -0.0166208 -0.0154716 -0.0155628 -0.0166208 -0.0167189 -0.0153482 -0.015934 -0.0165823 -0.0172042 -0.015934 -0.0163588 -0.0172042 -0.0176549 -0.0165823 -0.0172042 -0.0179854 -0.0186448 -0.0172042 -0.0176549 -0.0186448 -0.0191224 -0.0163588 -0.0166208 -0.0176549 -0.0179334 -0.0166208 -0.0167189 -0.0179334 -0.0180391 -0.0176549 -0.0179334 -0.0191224 -0.0194182 -0.0179334 -0.0180391 -0.0194182 -0.019532 -0.013552 -0.0149239 -0.014834 -0.0163082 -0.0149239 -0.0161229 -0.0163082 -0.0175905 -0.014834 -0.0163082 -0.0163014 -0.0178845 -0.0163082 -0.0175905 -0.0178845 -0.0192526 -0.0161229 -0.0171444 -0.0175905 -0.0186777 -0.0171444 -0.0179854 -0.0186777 -0.0195694 -0.0175905 -0.0186777 -0.0192526 -0.020406 -0.0186777 -0.0195694 -0.020406 -0.0213472 -0.0163014 -0.0178845 -0.0179798 -0.0196754 -0.0178845 -0.0192526 -0.0196754 -0.0211291 -0.0179798 -0.0196754 -0.0198998 -0.0217078 -0.0196754 -0.0211291 -0.0217078 -0.0232424 -0.0192526 -0.020406 -0.0211291 -0.0223456 -0.020406 -0.0213472 -0.0223456 -0.0233322 -0.0211291 -0.0223456 -0.0232424 -0.0245145 -0.0223456 -0.0233322 -0.0245145 -0.0255378 -0.0179854 -0.0186448 -0.0195694 -0.0202666 -0.0186448 -0.0191224 -0.0202666 -0.020771 -0.0195694 -0.0202666 -0.0213472 -0.0220805 -0.0202666 -0.020771 -0.0220805 -0.02261 -0.0191224 -0.0194182 -0.020771 -0.021084 -0.0194182 -0.019532 -0.021084 -0.0212064 -0.020771 -0.021084 -0.02261 -0.0229393 -0.021084 -0.0212064 -0.0229393 -0.0230706 -0.0213472 -0.0220805 -0.0233322 -0.0240971 -0.0220805 -0.02261 -0.0240971 -0.0246481 -0.0233322 -0.0240971 -0.0255378 -0.0263263 -0.0240971 -0.0246481 -0.0263263 -0.0268925 -0.02261 -0.0229393 -0.0246481 -0.0249916 -0.0229393 -0.0230706 -0.0249916 -0.0251313 -0.0246481 -0.0249916 -0.0268925 -0.0272463 -0.0249916 -0.0251313 -0.0272463 -0.0273936 -0.000220133 -0.000219231 -0.00737883 -0.00734414 -0.000219231 -0.000215778 -0.00734414 -0.00723053 -0.00737883 -0.00734414 -0.0104145 -0.0103643 -0.00734414 -0.00723053 -0.0103643 -0.0102037 -0.000215778 -0.000209803 -0.00723053 -0.00703893 -0.000209803 -0.000201356 -0.00703893 -0.00677102 -0.00723053 -0.00703893 -0.0102037 -0.00993396 -0.00703893 -0.00677102 -0.00993396 -0.00955757 -0.0104145 -0.0103643 -0.0114557 -0.0114002 -0.0103643 -0.0102037 -0.0114002 -0.0112239 -0.0114557 -0.0114002 -0.0119462 -0.0118888 -0.0114002 -0.0112239 -0.0118888 -0.011706 -0.0102037 -0.00993396 -0.0112239 -0.0109281 -0.00993396 -0.00955757 -0.0109281 -0.0105155 -0.0112239 -0.0109281 -0.011706 -0.011399 -0.0109281 -0.0105155 -0.011399 -0.0109705 -0.000201356 -0.000190507 -0.00677102 -0.00642927 -0.000190507 -0.000177362 -0.00642927 -0.0060169 -0.00677102 -0.00642927 -0.00955757 -0.00907792 -0.00642927 -0.0060169 -0.00907792 -0.00849954 -0.000177362 -0.000162058 -0.0060169 -0.00553796 -0.000162058 -0.000144765 -0.00553796 -0.0049972 -0.0060169 -0.00553796 -0.00849954 -0.00782803 -0.00553796 -0.0049972 -0.00782803 -0.00707002 -0.00955757 -0.00907792 -0.0105155 -0.00998974 -0.00907792 -0.00849954 -0.00998974 -0.00935567 -0.0105155 -0.00998974 -0.0109705 -0.0104241 -0.00998974 -0.00935567 -0.0104241 -0.00976475 -0.00849954 -0.00782803 -0.00935567 -0.00861939 -0.00782803 -0.00707002 -0.00861939 -0.00778806 -0.00935567 -0.00861939 -0.00976475 -0.00899865 -0.00861939 -0.00778806 -0.00899865 -0.00813312 -0.0119462 -0.0118888 -0.0124185 -0.0123599 -0.0118888 -0.011706 -0.0123599 -0.0121715 -0.0124185 -0.0123599 -0.012998 -0.012938 -0.0123599 -0.0121715 -0.012938 -0.0127429 -0.011706 -0.011399 -0.0121715 -0.0118545 -0.011399 -0.0109705 -0.0118545 -0.0114114 -0.0121715 -0.0118545 -0.0127429 -0.012414 -0.0118545 -0.0114114 -0.012414 -0.0119537 -0.012998 -0.012938 -0.0137098 -0.0136482 -0.012938 -0.0127429 -0.0136482 -0.0134453 -0.0137098 -0.0136482 -0.0145623 -0.014499 -0.0136482 -0.0134453 -0.014499 -0.0142873 -0.0127429 -0.012414 -0.0134453 -0.0131023 -0.012414 -0.0119537 -0.0131023 -0.0126213 -0.0134453 -0.0131023 -0.0142873 -0.0139281 -0.0131023 -0.0126213 -0.0139281 -0.0134231 -0.0109705 -0.0104241 -0.0114114 -0.010846 -0.0104241 -0.00976475 -0.010846 -0.010163 -0.0114114 -0.010846 -0.0119537 -0.0113654 -0.010846 -0.010163 -0.0113654 -0.0106538 -0.00976475 -0.00899865 -0.010163 -0.0093686 -0.00899865 -0.00813312 -0.0093686 -0.00847024 -0.010163 -0.0093686 -0.0106538 -0.00982514 -0.0093686 -0.00847024 -0.00982514 -0.00888674 -0.0119537 -0.0113654 -0.0126213 -0.0120055 -0.0113654 -0.0106538 -0.0120055 -0.0112595 -0.0126213 -0.0120055 -0.0134231 -0.0127754 -0.0120055 -0.0112595 -0.0127754 -0.0119891 -0.0106538 -0.00982514 -0.0112595 -0.0103892 -0.00982514 -0.00888674 -0.0103892 -0.00940205 -0.0112595 -0.0103892 -0.0119891 -0.0110698 -0.0103892 -0.00940205 -0.0110698 -0.0100248 -0.000144765 -0.000125617 -0.0049972 -0.00440051 -0.000125617 -0.000105047 -0.00440051 -0.00375271 -0.0049972 -0.00440051 -0.00707002 -0.0062336 -0.00440051 -0.00375271 -0.0062336 -0.00532577 -0.000105047 -8.2234e-05 -0.00375271 -0.00306877 -8.2234e-05 -6.21058e-05 -0.00306877 -0.00231794 -0.00375271 -0.00306877 -0.00532577 -0.00436485 -0.00306877 -0.00231794 -0.00436485 -0.00331677 -0.00707002 -0.0062336 -0.00778806 -0.00687043 -0.0062336 -0.00532577 -0.00687043 -0.00587426 -0.00778806 -0.00687043 -0.00813312 -0.00717713 -0.00687043 -0.00587426 -0.00717713 -0.0061388 -0.00532577 -0.00436485 -0.00587426 -0.00481893 -0.00436485 -0.00331677 -0.00481893 -0.00367171 -0.00587426 -0.00481893 -0.0061388 -0.00503826 -0.00481893 -0.00367171 -0.00503826 -0.00384325 -6.21058e-05 -3.89061e-05 -0.00231794 -0.00170811 -3.89061e-05 9.13958e-05 -0.00170811 -0.00019908 -0.00231794 -0.00170811 -0.00331677 -0.00243024 -0.00170811 -0.00019908 -0.00243024 -0.000543397 9.13958e-05 -8.17826e-05 -0.00019908 -0.00328658 -8.17826e-05 0.0247938 -0.00328658 0.0220762 -0.00019908 -0.00328658 -0.000543397 -0.00357957 -0.00328658 0.0220762 -0.00357957 0.023401 -0.00331677 -0.00243024 -0.00367171 -0.00268872 -0.00243024 -0.000543397 -0.00268872 -0.000679233 -0.00367171 -0.00268872 -0.00384325 -0.00281259 -0.00268872 -0.000679233 -0.00281259 -0.000741334 -0.000543397 -0.00357957 -0.000679233 -0.00371948 -0.00357957 0.023401 -0.00371948 0.0234369 -0.000679233 -0.00371948 -0.000741334 -0.00378006 -0.00371948 0.0234369 -0.00378006 0.0236836 -0.00813312 -0.00717713 -0.00847024 -0.00747707 -0.00717713 -0.0061388 -0.00747707 -0.00639746 -0.00847024 -0.00747707 -0.00888674 -0.00784797 -0.00747707 -0.00639746 -0.00784797 -0.00671745 -0.0061388 -0.00503826 -0.00639746 -0.00525217 -0.00503826 -0.00384325 -0.00525217 -0.00400844 -0.00639746 -0.00525217 -0.00671745 -0.00551659 -0.00525217 -0.00400844 -0.00551659 -0.00421198 -0.00888674 -0.00784797 -0.00940205 -0.00830743 -0.00784797 -0.00671745 -0.00830743 -0.00711427 -0.00940205 -0.00830743 -0.0100248 -0.00886359 -0.00830743 -0.00711427 -0.00886359 -0.00759537 -0.00671745 -0.00551659 -0.00711427 -0.00584478 -0.00551659 -0.00421198 -0.00584478 -0.0044649 -0.00711427 -0.00584478 -0.00759537 -0.00624328 -0.00584478 -0.0044649 -0.00624328 -0.00477257 -0.00384325 -0.00281259 -0.00400844 -0.00292938 -0.00281259 -0.000741334 -0.00292938 -0.000788561 -0.00400844 -0.00292938 -0.00421198 -0.00307349 -0.00292938 -0.000788561 -0.00307349 -0.000847578 -0.000741334 -0.00378006 -0.000788561 -0.0038538 -0.00378006 0.0236836 -0.0038538 0.0241019 -0.000788561 -0.0038538 -0.000847578 -0.00395746 -0.0038538 0.0241019 -0.00395746 0.0246644 -0.00421198 -0.00307349 -0.0044649 -0.00325343 -0.00307349 -0.000847578 -0.00325343 -0.000922223 -0.0044649 -0.00325343 -0.00477257 -0.00347295 -0.00325343 -0.000922223 -0.00347295 -0.0010138 -0.000847578 -0.00395746 -0.000922223 -0.00408959 -0.00395746 0.0246644 -0.00408959 0.025384 -0.000922223 -0.00408959 -0.0010138 -0.00425194 -0.00408959 0.025384 -0.00425194 0.026268 -0.0145623 -0.014499 -0.0155628 -0.0154977 -0.014499 -0.0142873 -0.0154977 -0.0152763 -0.0155628 -0.0154977 -0.0167189 -0.0166523 -0.0154977 -0.0152763 -0.0166523 -0.0164206 -0.0142873 -0.0139281 -0.0152763 -0.0148991 -0.0139281 -0.0134231 -0.0148991 -0.0143674 -0.0152763 -0.0148991 -0.0164206 -0.016024 -0.0148991 -0.0143674 -0.016024 -0.0154632 -0.0167189 -0.0166523 -0.0180391 -0.0179712 -0.0166523 -0.0164206 -0.0179712 -0.0177292 -0.0180391 -0.0179712 -0.019532 -0.0194635 -0.0179712 -0.0177292 -0.0194635 -0.0192117 -0.0164206 -0.016024 -0.0177292 -0.0173126 -0.016024 -0.0154632 -0.0173126 -0.0167213 -0.0177292 -0.0173126 -0.0192117 -0.0187754 -0.0173126 -0.0167213 -0.0187754 -0.0181531 -0.0134231 -0.0127754 -0.0143674 -0.0136836 -0.0127754 -0.0119891 -0.0136836 -0.0128513 -0.0143674 -0.0136836 -0.0154632 -0.0147398 -0.0136836 -0.0128513 -0.0147398 -0.0138566 -0.0119891 -0.0110698 -0.0128513 -0.0118758 -0.0110698 -0.0100248 -0.0118758 -0.0107639 -0.0128513 -0.0118758 -0.0138566 -0.0128179 -0.0118758 -0.0107639 -0.0128179 -0.01163 -0.0154632 -0.0147398 -0.0167213 -0.0159555 -0.0147398 -0.0138566 -0.0159555 -0.015017 -0.0167213 -0.0159555 -0.0181531 -0.0173436 -0.0159555 -0.015017 -0.0173436 -0.0163467 -0.0138566 -0.0128179 -0.015017 -0.0139088 -0.0128179 -0.01163 -0.0139088 -0.0126363 -0.015017 -0.0139088 -0.0163467 -0.0151638 -0.0139088 -0.0126363 -0.0151638 -0.0137986 -0.019532 -0.0194635 -0.0212064 -0.0211382 -0.0194635 -0.0192117 -0.0211382 -0.020878 -0.0212064 -0.0211382 -0.0230706 -0.023004 -0.0211382 -0.020878 -0.023004 -0.0227377 -0.0192117 -0.0187754 -0.020878 -0.0204235 -0.0187754 -0.0181531 -0.0204235 -0.0197714 -0.020878 -0.0204235 -0.0227377 -0.0222681 -0.0204235 -0.0197714 -0.0222681 -0.0215898 -0.0230706 -0.023004 -0.0251313 -0.0250681 -0.023004 -0.0227377 -0.0250681 -0.0247996 -0.0251313 -0.0250681 -0.0273936 -0.0273362 -0.0250681 -0.0247996 -0.0273362 -0.0270709 -0.0227377 -0.0222681 -0.0247996 -0.0243204 -0.0222681 -0.0215898 -0.0243204 -0.0236222 -0.0247996 -0.0243204 -0.0270709 -0.0265903 -0.0243204 -0.0236222 -0.0265903 -0.0258826 -0.0181531 -0.0173436 -0.0197714 -0.0189186 -0.0173436 -0.0163467 -0.0189186 -0.0178621 -0.0197714 -0.0189186 -0.0215898 -0.0206965 -0.0189186 -0.0178621 -0.0206965 -0.0195819 -0.0163467 -0.0151638 -0.0178621 -0.0166008 -0.0151638 -0.0137986 -0