# vtk DataFile Version 3.0
#This file was generated by the deal.II library on 2026/1/5 at 14:19:36
ASCII
DATASET UNSTRUCTURED_GRID

POINTS 4096 double
0 0 0
0.03125 0 0
0 0.03125 0
0.03125 0.03125 0
0.03125 0 0
0.0625 0 0
0.03125 0.03125 0
0.0625 0.03125 0
0 0.03125 0
0.03125 0.03125 0
0 0.0625 0
0.03125 0.0625 0
0.03125 0.03125 0
0.0625 0.03125 0
0.03125 0.0625 0
0.0625 0.0625 0
0.0625 0 0
0.09375 0 0
0.0625 0.03125 0
0.09375 0.03125 0
0.09375 0 0
0.125 0 0
0.09375 0.03125 0
0.125 0.03125 0
0.0625 0.03125 0
0.09375 0.03125 0
0.0625 0.0625 0
0.09375 0.0625 0
0.09375 0.03125 0
0.125 0.03125 0
0.09375 0.0625 0
0.125 0.0625 0
0 0.0625 0
0.03125 0.0625 0
0 0.09375 0
0.03125 0.09375 0
0.03125 0.0625 0
0.0625 0.0625 0
0.03125 0.09375 0
0.0625 0.09375 0
0 0.09375 0
0.03125 0.09375 0
0 0.125 0
0.03125 0.125 0
0.03125 0.09375 0
0.0625 0.09375 0
0.03125 0.125 0
0.0625 0.125 0
0.0625 0.0625 0
0.09375 0.0625 0
0.0625 0.09375 0
0.09375 0.09375 0
0.09375 0.0625 0
0.125 0.0625 0
0.09375 0.09375 0
0.125 0.09375 0
0.0625 0.09375 0
0.09375 0.09375 0
0.0625 0.125 0
0.09375 0.125 0
0.09375 0.09375 0
0.125 0.09375 0
0.09375 0.125 0
0.125 0.125 0
0.125 0 0
0.15625 0 0
0.125 0.03125 0
0.15625 0.03125 0
0.15625 0 0
0.1875 0 0
0.15625 0.03125 0
0.1875 0.03125 0
0.125 0.03125 0
0.15625 0.03125 0
0.125 0.0625 0
0.15625 0.0625 0
0.15625 0.03125 0
0.1875 0.03125 0
0.15625 0.0625 0
0.1875 0.0625 0
0.1875 0 0
0.21875 0 0
0.1875 0.03125 0
0.21875 0.03125 0
0.21875 0 0
0.25 0 0
0.21875 0.03125 0
0.25 0.03125 0
0.1875 0.03125 0
0.21875 0.03125 0
0.1875 0.0625 0
0.21875 0.0625 0
0.21875 0.03125 0
0.25 0.03125 0
0.21875 0.0625 0
0.25 0.0625 0
0.125 0.0625 0
0.15625 0.0625 0
0.125 0.09375 0
0.15625 0.09375 0
0.15625 0.0625 0
0.1875 0.0625 0
0.15625 0.09375 0
0.1875 0.09375 0
0.125 0.09375 0
0.15625 0.09375 0
0.125 0.125 0
0.15625 0.125 0
0.15625 0.09375 0
0.1875 0.09375 0
0.15625 0.125 0
0.1875 0.125 0
0.1875 0.0625 0
0.21875 0.0625 0
0.1875 0.09375 0
0.21875 0.09375 0
0.21875 0.0625 0
0.25 0.0625 0
0.21875 0.09375 0
0.25 0.09375 0
0.1875 0.09375 0
0.21875 0.09375 0
0.1875 0.125 0
0.21875 0.125 0
0.21875 0.09375 0
0.25 0.09375 0
0.21875 0.125 0
0.25 0.125 0
0 0.125 0
0.03125 0.125 0
0 0.15625 0
0.03125 0.15625 0
0.03125 0.125 0
0.0625 0.125 0
0.03125 0.15625 0
0.0625 0.15625 0
0 0.15625 0
0.03125 0.15625 0
0 0.1875 0
0.03125 0.1875 0
0.03125 0.15625 0
0.0625 0.15625 0
0.03125 0.1875 0
0.0625 0.1875 0
0.0625 0.125 0
0.09375 0.125 0
0.0625 0.15625 0
0.09375 0.15625 0
0.09375 0.125 0
0.125 0.125 0
0.09375 0.15625 0
0.125 0.15625 0
0.0625 0.15625 0
0.09375 0.15625 0
0.0625 0.1875 0
0.09375 0.1875 0
0.09375 0.15625 0
0.125 0.15625 0
0.09375 0.1875 0
0.125 0.1875 0
0 0.1875 0
0.03125 0.1875 0
0 0.21875 0
0.03125 0.21875 0
0.03125 0.1875 0
0.0625 0.1875 0
0.03125 0.21875 0
0.0625 0.21875 0
0 0.21875 0
0.03125 0.21875 0
0 0.25 0
0.03125 0.25 0
0.03125 0.21875 0
0.0625 0.21875 0
0.03125 0.25 0
0.0625 0.25 0
0.0625 0.1875 0
0.09375 0.1875 0
0.0625 0.21875 0
0.09375 0.21875 0
0.09375 0.1875 0
0.125 0.1875 0
0.09375 0.21875 0
0.125 0.21875 0
0.0625 0.21875 0
0.09375 0.21875 0
0.0625 0.25 0
0.09375 0.25 0
0.09375 0.21875 0
0.125 0.21875 0
0.09375 0.25 0
0.125 0.25 0
0.125 0.125 0
0.15625 0.125 0
0.125 0.15625 0
0.15625 0.15625 0
0.15625 0.125 0
0.1875 0.125 0
0.15625 0.15625 0
0.1875 0.15625 0
0.125 0.15625 0
0.15625 0.15625 0
0.125 0.1875 0
0.15625 0.1875 0
0.15625 0.15625 0
0.1875 0.15625 0
0.15625 0.1875 0
0.1875 0.1875 0
0.1875 0.125 0
0.21875 0.125 0
0.1875 0.15625 0
0.21875 0.15625 0
0.21875 0.125 0
0.25 0.125 0
0.21875 0.15625 0
0.25 0.15625 0
0.1875 0.15625 0
0.21875 0.15625 0
0.1875 0.1875 0
0.21875 0.1875 0
0.21875 0.15625 0
0.25 0.15625 0
0.21875 0.1875 0
0.25 0.1875 0
0.125 0.1875 0
0.15625 0.1875 0
0.125 0.21875 0
0.15625 0.21875 0
0.15625 0.1875 0
0.1875 0.1875 0
0.15625 0.21875 0
0.1875 0.21875 0
0.125 0.21875 0
0.15625 0.21875 0
0.125 0.25 0
0.15625 0.25 0
0.15625 0.21875 0
0.1875 0.21875 0
0.15625 0.25 0
0.1875 0.25 0
0.1875 0.1875 0
0.21875 0.1875 0
0.1875 0.21875 0
0.21875 0.21875 0
0.21875 0.1875 0
0.25 0.1875 0
0.21875 0.21875 0
0.25 0.21875 0
0.1875 0.21875 0
0.21875 0.21875 0
0.1875 0.25 0
0.21875 0.25 0
0.21875 0.21875 0
0.25 0.21875 0
0.21875 0.25 0
0.25 0.25 0
0.25 0 0
0.28125 0 0
0.25 0.03125 0
0.28125 0.03125 0
0.28125 0 0
0.3125 0 0
0.28125 0.03125 0
0.3125 0.03125 0
0.25 0.03125 0
0.28125 0.03125 0
0.25 0.0625 0
0.28125 0.0625 0
0.28125 0.03125 0
0.3125 0.03125 0
0.28125 0.0625 0
0.3125 0.0625 0
0.3125 0 0
0.34375 0 0
0.3125 0.03125 0
0.34375 0.03125 0
0.34375 0 0
0.375 0 0
0.34375 0.03125 0
0.375 0.03125 0
0.3125 0.03125 0
0.34375 0.03125 0
0.3125 0.0625 0
0.34375 0.0625 0
0.34375 0.03125 0
0.375 0.03125 0
0.34375 0.0625 0
0.375 0.0625 0
0.25 0.0625 0
0.28125 0.0625 0
0.25 0.09375 0
0.28125 0.09375 0
0.28125 0.0625 0
0.3125 0.0625 0
0.28125 0.09375 0
0.3125 0.09375 0
0.25 0.09375 0
0.28125 0.09375 0
0.25 0.125 0
0.28125 0.125 0
0.28125 0.09375 0
0.3125 0.09375 0
0.28125 0.125 0
0.3125 0.125 0
0.3125 0.0625 0
0.34375 0.0625 0
0.3125 0.09375 0
0.34375 0.09375 0
0.34375 0.0625 0
0.375 0.0625 0
0.34375 0.09375 0
0.375 0.09375 0
0.3125 0.09375 0
0.34375 0.09375 0
0.3125 0.125 0
0.34375 0.125 0
0.34375 0.09375 0
0.375 0.09375 0
0.34375 0.125 0
0.375 0.125 0
0.375 0 0
0.40625 0 0
0.375 0.03125 0
0.40625 0.03125 0
0.40625 0 0
0.4375 0 0
0.40625 0.03125 0
0.4375 0.03125 0
0.375 0.03125 0
0.40625 0.03125 0
0.375 0.0625 0
0.40625 0.0625 0
0.40625 0.03125 0
0.4375 0.03125 0
0.40625 0.0625 0
0.4375 0.0625 0
0.4375 0 0
0.46875 0 0
0.4375 0.03125 0
0.46875 0.03125 0
0.46875 0 0
0.5 0 0
0.46875 0.03125 0
0.5 0.03125 0
0.4375 0.03125 0
0.46875 0.03125 0
0.4375 0.0625 0
0.46875 0.0625 0
0.46875 0.03125 0
0.5 0.03125 0
0.46875 0.0625 0
0.5 0.0625 0
0.375 0.0625 0
0.40625 0.0625 0
0.375 0.09375 0
0.40625 0.09375 0
0.40625 0.0625 0
0.4375 0.0625 0
0.40625 0.09375 0
0.4375 0.09375 0
0.375 0.09375 0
0.40625 0.09375 0
0.375 0.125 0
0.40625 0.125 0
0.40625 0.09375 0
0.4375 0.09375 0
0.40625 0.125 0
0.4375 0.125 0
0.4375 0.0625 0
0.46875 0.0625 0
0.4375 0.09375 0
0.46875 0.09375 0
0.46875 0.0625 0
0.5 0.0625 0
0.46875 0.09375 0
0.5 0.09375 0
0.4375 0.09375 0
0.46875 0.09375 0
0.4375 0.125 0
0.46875 0.125 0
0.46875 0.09375 0
0.5 0.09375 0
0.46875 0.125 0
0.5 0.125 0
0.25 0.125 0
0.28125 0.125 0
0.25 0.15625 0
0.28125 0.15625 0
0.28125 0.125 0
0.3125 0.125 0
0.28125 0.15625 0
0.3125 0.15625 0
0.25 0.15625 0
0.28125 0.15625 0
0.25 0.1875 0
0.28125 0.1875 0
0.28125 0.15625 0
0.3125 0.15625 0
0.28125 0.1875 0
0.3125 0.1875 0
0.3125 0.125 0
0.34375 0.125 0
0.3125 0.15625 0
0.34375 0.15625 0
0.34375 0.125 0
0.375 0.125 0
0.34375 0.15625 0
0.375 0.15625 0
0.3125 0.15625 0
0.34375 0.15625 0
0.3125 0.1875 0
0.34375 0.1875 0
0.34375 0.15625 0
0.375 0.15625 0
0.34375 0.1875 0
0.375 0.1875 0
0.25 0.1875 0
0.28125 0.1875 0
0.25 0.21875 0
0.28125 0.21875 0
0.28125 0.1875 0
0.3125 0.1875 0
0.28125 0.21875 0
0.3125 0.21875 0
0.25 0.21875 0
0.28125 0.21875 0
0.25 0.25 0
0.28125 0.25 0
0.28125 0.21875 0
0.3125 0.21875 0
0.28125 0.25 0
0.3125 0.25 0
0.3125 0.1875 0
0.34375 0.1875 0
0.3125 0.21875 0
0.34375 0.21875 0
0.34375 0.1875 0
0.375 0.1875 0
0.34375 0.21875 0
0.375 0.21875 0
0.3125 0.21875 0
0.34375 0.21875 0
0.3125 0.25 0
0.34375 0.25 0
0.34375 0.21875 0
0.375 0.21875 0
0.34375 0.25 0
0.375 0.25 0
0.375 0.125 0
0.40625 0.125 0
0.375 0.15625 0
0.40625 0.15625 0
0.40625 0.125 0
0.4375 0.125 0
0.40625 0.15625 0
0.4375 0.15625 0
0.375 0.15625 0
0.40625 0.15625 0
0.375 0.1875 0
0.40625 0.1875 0
0.40625 0.15625 0
0.4375 0.15625 0
0.40625 0.1875 0
0.4375 0.1875 0
0.4375 0.125 0
0.46875 0.125 0
0.4375 0.15625 0
0.46875 0.15625 0
0.46875 0.125 0
0.5 0.125 0
0.46875 0.15625 0
0.5 0.15625 0
0.4375 0.15625 0
0.46875 0.15625 0
0.4375 0.1875 0
0.46875 0.1875 0
0.46875 0.15625 0
0.5 0.15625 0
0.46875 0.1875 0
0.5 0.1875 0
0.375 0.1875 0
0.40625 0.1875 0
0.375 0.21875 0
0.40625 0.21875 0
0.40625 0.1875 0
0.4375 0.1875 0
0.40625 0.21875 0
0.4375 0.21875 0
0.375 0.21875 0
0.40625 0.21875 0
0.375 0.25 0
0.40625 0.25 0
0.40625 0.21875 0
0.4375 0.21875 0
0.40625 0.25 0
0.4375 0.25 0
0.4375 0.1875 0
0.46875 0.1875 0
0.4375 0.21875 0
0.46875 0.21875 0
0.46875 0.1875 0
0.5 0.1875 0
0.46875 0.21875 0
0.5 0.21875 0
0.4375 0.21875 0
0.46875 0.21875 0
0.4375 0.25 0
0.46875 0.25 0
0.46875 0.21875 0
0.5 0.21875 0
0.46875 0.25 0
0.5 0.25 0
0 0.25 0
0.03125 0.25 0
0 0.28125 0
0.03125 0.28125 0
0.03125 0.25 0
0.0625 0.25 0
0.03125 0.28125 0
0.0625 0.28125 0
0 0.28125 0
0.03125 0.28125 0
0 0.3125 0
0.03125 0.3125 0
0.03125 0.28125 0
0.0625 0.28125 0
0.03125 0.3125 0
0.0625 0.3125 0
0.0625 0.25 0
0.09375 0.25 0
0.0625 0.28125 0
0.09375 0.28125 0
0.09375 0.25 0
0.125 0.25 0
0.09375 0.28125 0
0.125 0.28125 0
0.0625 0.28125 0
0.09375 0.28125 0
0.0625 0.3125 0
0.09375 0.3125 0
0.09375 0.28125 0
0.125 0.28125 0
0.09375 0.3125 0
0.125 0.3125 0
0 0.3125 0
0.03125 0.3125 0
0 0.34375 0
0.03125 0.34375 0
0.03125 0.3125 0
0.0625 0.3125 0
0.03125 0.34375 0
0.0625 0.34375 0
0 0.34375 0
0.03125 0.34375 0
0 0.375 0
0.03125 0.375 0
0.03125 0.34375 0
0.0625 0.34375 0
0.03125 0.375 0
0.0625 0.375 0
0.0625 0.3125 0
0.09375 0.3125 0
0.0625 0.34375 0
0.09375 0.34375 0
0.09375 0.3125 0
0.125 0.3125 0
0.09375 0.34375 0
0.125 0.34375 0
0.0625 0.34375 0
0.09375 0.34375 0
0.0625 0.375 0
0.09375 0.375 0
0.09375 0.34375 0
0.125 0.34375 0
0.09375 0.375 0
0.125 0.375 0
0.125 0.25 0
0.15625 0.25 0
0.125 0.28125 0
0.15625 0.28125 0
0.15625 0.25 0
0.1875 0.25 0
0.15625 0.28125 0
0.1875 0.28125 0
0.125 0.28125 0
0.15625 0.28125 0
0.125 0.3125 0
0.15625 0.3125 0
0.15625 0.28125 0
0.1875 0.28125 0
0.15625 0.3125 0
0.1875 0.3125 0
0.1875 0.25 0
0.21875 0.25 0
0.1875 0.28125 0
0.21875 0.28125 0
0.21875 0.25 0
0.25 0.25 0
0.21875 0.28125 0
0.25 0.28125 0
0.1875 0.28125 0
0.21875 0.28125 0
0.1875 0.3125 0
0.21875 0.3125 0
0.21875 0.28125 0
0.25 0.28125 0
0.21875 0.3125 0
0.25 0.3125 0
0.125 0.3125 0
0.15625 0.3125 0
0.125 0.34375 0
0.15625 0.34375 0
0.15625 0.3125 0
0.1875 0.3125 0
0.15625 0.34375 0
0.1875 0.34375 0
0.125 0.34375 0
[...]
POINT_DATA 4096
SCALARS u_x double 1
LOOKUP_TABLE default
-7.27443e-06 1.44338e-05 -5.75964e-05 -5.55526e-05 1.44338e-05 2.25554e-05 -5.55526e-05 -0.000383585 -5.75964e-05 -5.55526e-05 -0.000180231 -0.000221596 -5.55526e-05 -0.000383585 -0.000221596 -0.000968931 2.25554e-05 1.95273e-05 -0.000383585 -0.000999834 1.95273e-05 1.02801e-05 -0.000999834 -0.00185797 -0.000383585 -0.000999834 -0.000968931 -0.00215035 -0.000999834 -0.00185797 -0.00215035 -0.003705 -0.000180231 -0.000221596 -0.000313857 -0.000378688 -0.000221596 -0.000968931 -0.000378688 -0.00152838 -0.000313857 -0.000378688 -0.000410955 -0.000505947 -0.000378688 -0.00152838 -0.000505947 -0.0019948 -0.000968931 -0.00215035 -0.00152838 -0.00321535 -0.00215035 -0.003705 -0.00321535 -0.00535476 -0.00152838 -0.00321535 -0.0019948 -0.00411549 -0.00321535 -0.00535476 -0.00411549 -0.00674786 1.02801e-05 -1.57265e-06 -0.00185797 -0.00287528 -1.57265e-06 -1.41329e-05 -0.00287528 -0.00397724 -0.00185797 -0.00287528 -0.003705 -0.00550927 -0.00287528 -0.00397724 -0.00550927 -0.00745025 -1.41329e-05 -2.64863e-05 -0.00397724 -0.00510322 -2.64863e-05 -3.81997e-05 -0.00510322 -0.00620732 -0.00397724 -0.00510322 -0.00745025 -0.00943035 -0.00510322 -0.00620732 -0.00943035 -0.0113722 -0.003705 -0.00550927 -0.00535476 -0.00778991 -0.00550927 -0.00745025 -0.00778991 -0.0103855 -0.00535476 -0.00778991 -0.00674786 -0.00970198 -0.00778991 -0.0103855 -0.00970198 -0.0128239 -0.00745025 -0.00943035 -0.0103855 -0.013022 -0.00943035 -0.0113722 -0.013022 -0.0156026 -0.0103855 -0.013022 -0.0128239 -0.0159796 -0.013022 -0.0156026 -0.0159796 -0.0190594 -0.000410955 -0.000505947 -0.000447251 -0.00060946 -0.000505947 -0.0019948 -0.00060946 -0.00236825 -0.000447251 -0.00060946 -0.000410763 -0.00070042 -0.00060946 -0.00236825 -0.00070042 -0.0026721 -0.0019948 -0.00411549 -0.00236825 -0.00485466 -0.00411549 -0.00674786 -0.00485466 -0.00790473 -0.00236825 -0.00485466 -0.0026721 -0.00547258 -0.00485466 -0.00790473 -0.00547258 -0.0088851 -0.000410763 -0.00070042 -0.000295009 -0.000789292 -0.00070042 -0.0026721 -0.000789292 -0.00293404 -0.000295009 -0.000789292 -9.57542e-05 -0.000884802 -0.000789292 -0.00293404 -0.000884802 -0.00317948 -0.0026721 -0.00547258 -0.00293404 -0.0060185 -0.00547258 -0.0088851 -0.0060185 -0.0097609 -0.00293404 -0.0060185 -0.00317948 -0.00653944 -0.0060185 -0.0097609 -0.00653944 -0.0106016 -0.00674786 -0.00970198 -0.00790473 -0.0112969 -0.00970198 -0.0128239 -0.0112969 -0.0148583 -0.00790473 -0.0112969 -0.0088851 -0.0126608 -0.0112969 -0.0148583 -0.0126608 -0.0166068 -0.0128239 -0.0159796 -0.0148583 -0.0184422 -0.0159796 -0.0190594 -0.0184422 -0.02193 -0.0148583 -0.0184422 -0.0166068 -0.0205642 -0.0184422 -0.02193 -0.0205642 -0.0244063 -0.0088851 -0.0126608 -0.0097609 -0.0138903 -0.0126608 -0.0166068 -0.0138903 -0.0181934 -0.0097609 -0.0138903 -0.0106016 -0.0150778 -0.0138903 -0.0181934 -0.0150778 -0.0197332 -0.0166068 -0.0205642 -0.0181934 -0.0224983 -0.0205642 -0.0244063 -0.0224983 -0.0266709 -0.0181934 -0.0224983 -0.0197332 -0.0243832 -0.0224983 -0.0266709 -0.0243832 -0.0288853 -3.81997e-05 -4.90883e-05 -0.00620732 -0.00725567 -4.90883e-05 -5.90729e-05 -0.00725567 -0.00822319 -0.00620732 -0.00725567 -0.0113722 -0.0132164 -0.00725567 -0.00822319 -0.0132164 -0.0149179 -5.90729e-05 -6.81049e-05 -0.00822319 -0.00909073 -6.81049e-05 -7.61247e-05 -0.00909073 -0.00984289 -0.00822319 -0.00909073 -0.0149179 -0.0164417 -0.00909073 -0.00984289 -0.0164417 -0.0177597 -0.0113722 -0.0132164 -0.0156026 -0.0180509 -0.0132164 -0.0149179 -0.0180509 -0.0203076 -0.0156026 -0.0180509 -0.0190594 -0.0219763 -0.0180509 -0.0203076 -0.0219763 -0.0246617 -0.0149179 -0.0164417 -0.0203076 -0.022326 -0.0164417 -0.0177597 -0.022326 -0.0240685 -0.0203076 -0.022326 -0.0246617 -0.027061 -0.022326 -0.0240685 -0.027061 -0.0291301 -7.61247e-05 -8.30413e-05 -0.00984289 -0.0104665 -8.30413e-05 -8.87349e-05 -0.0104665 -0.0109501 -0.00984289 -0.0104665 -0.0177597 -0.0188484 -0.0104665 -0.0109501 -0.0188484 -0.0196875 -8.87349e-05 -9.30647e-05 -0.0109501 -0.0112831 -9.30647e-05 -9.58751e-05 -0.0112831 -0.0114566 -0.0109501 -0.0112831 -0.0196875 -0.0202592 -0.0112831 -0.0114566 -0.0202592 -0.0205485 -0.0177597 -0.0188484 -0.0240685 -0.0255039 -0.0188484 -0.0196875 -0.0255039 -0.0266054 -0.0240685 -0.0255039 -0.0291301 -0.0308321 -0.0255039 -0.0266054 -0.0308321 -0.0321356 -0.0196875 -0.0202592 -0.0266054 -0.0273502 -0.0202592 -0.0205485 -0.0273502 -0.0277189 -0.0266054 -0.0273502 -0.0321356 -0.0330139 -0.0273502 -0.0277189 -0.0330139 -0.0334447 -0.0190594 -0.0219763 -0.02193 -0.0252274 -0.0219763 -0.0246617 -0.0252274 -0.0282599 -0.02193 -0.0252274 -0.0244063 -0.0280335 -0.0252274 -0.0282599 -0.0280335 -0.0313673 -0.0246617 -0.027061 -0.0282599 -0.0309678 -0.027061 -0.0291301 -0.0309678 -0.0333026 -0.0282599 -0.0309678 -0.0313673 -0.0343448 -0.0309678 -0.0333026 -0.0343448 -0.0369147 -0.0244063 -0.0280335 -0.0266709 -0.0306066 -0.0280335 -0.0313673 -0.0306066 -0.034224 -0.0266709 -0.0306066 -0.0288853 -0.0331305 -0.0306066 -0.034224 -0.0331305 -0.0370349 -0.0313673 -0.0343448 -0.034224 -0.0374581 -0.0343448 -0.0369147 -0.0374581 -0.0402556 -0.034224 -0.0374581 -0.0370349 -0.0405322 -0.0374581 -0.0402556 -0.0405322 -0.0435677 -0.0291301 -0.0308321 -0.0333026 -0.0352237 -0.0308321 -0.0321356 -0.0352237 -0.0366961 -0.0333026 -0.0352237 -0.0369147 -0.0390334 -0.0352237 -0.0366961 -0.0390334 -0.0406634 -0.0321356 -0.0330139 -0.0366961 -0.0376901 -0.0330139 -0.0334447 -0.0376901 -0.0381805 -0.0366961 -0.0376901 -0.0406634 -0.0417722 -0.0376901 -0.0381805 -0.0417722 -0.0423315 -0.0369147 -0.0390334 -0.0402556 -0.0425711 -0.0390334 -0.0406634 -0.0425711 -0.0443647 -0.0402556 -0.0425711 -0.0435677 -0.0460945 -0.0425711 -0.0443647 -0.0460945 -0.0480707 -0.0406634 -0.0417722 -0.0443647 -0.0456008 -0.0417722 -0.0423315 -0.0456008 -0.0462478 -0.0443647 -0.0456008 -0.0480707 -0.0494574 -0.0456008 -0.0462478 -0.0494574 -0.050219 -9.57542e-05 -0.000884802 0.000190879 -0.000993907 -0.000884802 -0.00317948 -0.000993907 -0.00342948 0.000190879 -0.000993907 0.000569447 -0.00112216 -0.000993907 -0.00342948 -0.00112216 -0.00370073 -0.00317948 -0.00653944 -0.00342948 -0.00707558 -0.00653944 -0.0106016 -0.00707558 -0.0114673 -0.00342948 -0.00707558 -0.00370073 -0.00765954 -0.00707558 -0.0114673 -0.00765954 -0.0124077 0.000569447 -0.00112216 0.0010458 -0.00127419 -0.00112216 -0.00370073 -0.00127419 -0.00400643 0.0010458 -0.00127419 0.00162733 -0.0014542 -0.00127419 -0.00400643 -0.0014542 -0.0043577 -0.00370073 -0.00765954 -0.00400643 -0.00831767 -0.00765954 -0.0124077 -0.00831767 -0.0134628 -0.00400643 -0.00831767 -0.0043577 -0.00907232 -0.00831767 -0.0134628 -0.00907232 -0.0146667 -0.0106016 -0.0150778 -0.0114673 -0.0163033 -0.0150778 -0.0197332 -0.0163033 -0.0213256 -0.0114673 -0.0163033 -0.0124077 -0.0176327 -0.0163033 -0.0213256 -0.0176327 -0.0230518 -0.0197332 -0.0243832 -0.0213256 -0.0263363 -0.0243832 -0.0288853 -0.0263363 -0.0311844 -0.0213256 -0.0263363 -0.0230518 -0.0284528 -0.0263363 -0.0311844 -0.0284528 -0.033676 -0.0124077 -0.0176327 -0.0134628 -0.0191197 -0.0176327 -0.0230518 -0.0191197 -0.0249773 -0.0134628 -0.0191197 -0.0146667 -0.0208088 -0.0191197 -0.0249773 -0.0208088 -0.0271557 -0.0230518 -0.0284528 -0.0249773 -0.0308084 -0.0284528 -0.033676 -0.0308084 -0.0364443 -0.0249773 -0.0308084 -0.0271557 -0.0334639 -0.0308084 -0.0364443 -0.0334639 -0.039555 0.00162733 -0.0014542 0.00232327 -0.00166647 -0.0014542 -0.0043577 -0.00166647 -0.00476501 0.00232327 -0.00166647 0.00314488 -0.00191594 -0.00166647 -0.00476501 -0.00191594 -0.00523978 -0.0043577 -0.00907232 -0.00476501 -0.0099445 -0.00907232 -0.0146667 -0.0099445 -0.0160508 -0.00476501 -0.0099445 -0.00523978 -0.0109567 -0.0099445 -0.0160508 -0.0109567 -0.0176478 0.00314488 -0.00191594 0.00410577 -0.00220869 -0.00191594 -0.00523978 -0.00220869 -0.00579596 0.00410577 -0.00220869 0.00522235 -0.00255265 -0.00220869 -0.00579596 -0.00255265 -0.00645182 -0.00523978 -0.0109567 -0.00579596 -0.0121356 -0.0109567 -0.0176478 -0.0121356 -0.0194956 -0.00579596 -0.0121356 -0.00645182 -0.0135153 -0.0121356 -0.0194956 -0.0135153 -0.0216409 -0.0146667 -0.0208088 -0.0160508 -0.0227408 -0.0208088 -0.0271557 -0.0227408 -0.0296346 -0.0160508 -0.0227408 -0.0176478 -0.0249563 -0.0227408 -0.0296346 -0.0249563 -0.0324597 -0.0271557 -0.0334639 -0.0296346 -0.0364707 -0.0334639 -0.039555 -0.0364707 -0.0430617 -0.0296346 -0.0364707 -0.0324597 -0.0398768 -0.0364707 -0.0430617 -0.0398768 -0.0470111 -0.0176478 -0.0249563 -0.0194956 -0.0275013 -0.0249563 -0.0324597 -0.0275013 -0.0356804 -0.0194956 -0.0275013 -0.0216409 -0.0304299 -0.0275013 -0.0356804 -0.0304299 -0.0393525 -0.0324597 -0.0398768 -0.0356804 -0.0437304 -0.0398768 -0.0470111 -0.0437304 -0.0514467 -0.0356804 -0.0437304 -0.0393525 -0.0480831 -0.0437304 -0.0514467 -0.0480831 -0.0564108 -0.0288853 -0.0331305 -0.0311844 -0.0357565 -0.0331305 -0.0370349 -0.0357565 -0.0399666 -0.0311844 -0.0357565 -0.033676 -0.0386037 -0.0357565 -0.0399666 -0.0386037 -0.0431483 -0.0370349 -0.0405322 -0.0399666 -0.0437474 -0.0405322 -0.0435677 -0.0437474 -0.0470439 -0.0399666 -0.0437474 -0.0431483 -0.0472424 -0.0437474 -0.0470439 -0.0472424 -0.050831 -0.033676 -0.0386037 -0.0364443 -0.0417633 -0.0386037 -0.0431483 -0.0417633 -0.0466771 -0.0364443 -0.0417633 -0.039555 -0.0453045 -0.0417633 -0.0466771 -0.0453045 -0.0506245 -0.0431483 -0.0472424 -0.0466771 -0.0511193 -0.0472424 -0.050831 -0.0511193 -0.0550365 -0.0466771 -0.0511193 -0.0506245 -0.0554514 -0.0511193 -0.0550365 -0.0554514 -0.059735 -0.0435677 -0.0460945 -0.0470439 -0.0498079 -0.0460945 -0.0480707 -0.0498079 -0.0519956 -0.0470439 -0.0498079 -0.050831 -0.0538661 -0.0498079 -0.0519956 -0.0538661 -0.056302 -0.0480707 -0.0494574 -0.0519956 -0.0535651 -0.0494574 -0.050219 -0.0535651 -0.0544757 -0.0519956 -0.0535651 -0.056302 -0.0580937 -0.0535651 -0.0544757 -0.0580937 -0.059195 -0.050831 -0.0538661 -0.0550365 -0.0583812 -0.0538661 -0.056302 -0.0583812 -0.0611076 -0.0550365 -0.0583812 -0.059735 -0.0634306 -0.0583812 -0.0611076 -0.0634306 -0.0664933 -0.056302 -0.0580937 -0.0611076 -0.0631676 -0.0580937 -0.059195 -0.0631676 -0.0645097 -0.0611076 -0.0631676 -0.0664933 -0.0688737 -0.0631676 -0.0645097 -0.0688737 -0.0705152 -0.039555 -0.0453045 -0.0430617 -0.0492808 -0.0453045 -0.0506245 -0.0492808 -0.0550429 -0.0430617 -0.0492808 -0.0470111 -0.0537356 -0.0492808 -0.0550429 -0.0537356 -0.0599704 -0.0506245 -0.0554514 -0.0550429 -0.0602892 -0.0554514 -0.059735 -0.0602892 -0.0649755 -0.0550429 -0.0602892 -0.0599704 -0.0656651 -0.0602892 -0.0649755 -0.0656651 -0.0707848 -0.0470111 -0.0537356 -0.0514467 -0.0587047 -0.0537356 -0.0599704 -0.0587047 -0.0654334 -0.0514467 -0.0587047 -0.0564108 -0.0642172 -0.0587047 -0.0654334 -0.0642172 -0.0714448 -0.0599704 -0.0656651 -0.0654334 -0.0715946 -0.0656651 -0.0707848 -0.0715946 -0.0771676 -0.0654334 -0.0715946 -0.0714448 -0.0780733 -0.0715946 -0.0771676 -0.0780733 -0.0841011 -0.059735 -0.0634306 -0.0649755 -0.0690624 -0.0634306 -0.0664933 -0.0690624 -0.0725089 -0.0649755 -0.0690624 -0.0707848 -0.0752993 -0.0690624 -0.0725089 -0.0752993 -0.079175 -0.0664933 -0.0688737 -0.0725089 -0.0752662 -0.0688737 -0.0705152 -0.0752662 -0.0772742 -0.0725089 -0.0752662 -0.079175 -0.0823675 -0.0752662 -0.0772742 -0.0823675 -0.0848162 -0.0707848 -0.0752993 -0.0771676 -0.0821362 -0.0752993 -0.079175 -0.0821362 -0.0864791 -0.0771676 -0.0821362 -0.0841011 -0.0895321 -0.0821362 -0.0864791 -0.0895321 -0.0943642 -0.079175 -0.0823675 -0.0864791 -0.0901617 -0.0823675 -0.0848162 -0.0901617 -0.0931279 -0.0864791 -0.0901617 -0.0943642 -0.0985791 -0.0901617 -0.0931279 -0.0985791 -0.102133 -9.58751e-05 -9.70035e-05 -0.0114566 -0.011463 -9.70035e-05 -9.62923e-05 -0.011463 -0.0112966 -0.0114566 -0.011463 -0.0205485 -0.0205431 -0.011463 -0.0112966 -0.0205431 -0.0202346 -9.62923e-05 -9.36052e-05 -0.0112966 -0.0109544 -9.36052e-05 -8.88433e-05 -0.0109544 -0.0104366 -0.0112966 -0.0109544 -0.0202346 -0.019619 -0.0109544 -0.0104366 -0.019619 -0.0186981 -0.0205485 -0.0205431 -0.0277189 -0.0276966 -0.0205431 -0.0202346 -0.0276966 -0.0272729 -0.0277189 -0.0276966 -0.0334447 -0.0334106 -0.0276966 -0.0272729 -0.0334106 -0.0328998 -0.0202346 -0.019619 -0.0272729 -0.0264439 -0.019619 -0.0186981 -0.0264439 -0.0252129 -0.0272729 -0.0264439 -0.0328998 -0.0319079 -0.0264439 -0.0252129 -0.0319079 -0.0304391 -8.88433e-05 -8.19548e-05 -0.0104366 -0.00974768 -8.19548e-05 -7.29448e-05 -0.00974768 -0.00889717 -0.0104366 -0.00974768 -0.0186981 -0.0174809 -0.00974768 -0.00889717 -0.0174809 -0.0159857 -7.29448e-05 -6.18934e-05 -0.00889717 -0.00790141 -6.18934e-05 -4.89901e-05 -0.00790141 -0.00678509 -0.00889717 -0.00790141 -0.0159857 -0.0142421 -0.00790141 -0.00678509 -0.0142421 -0.0122938 -0.0186981 -0.0174809 -0.0252129 -0.023593 -0.0174809 -0.0159857 -0.023593 -0.0216092 -0.0252129 -0.023593 -0.0304391 -0.0285092 -0.023593 -0.0216092 -0.0285092 -0.0261475 -0.0159857 -0.0142421 -0.0216092 -0.0193009 -0.0142421 -0.0122938 -0.0193009 -0.0167256 -0.0216092 -0.0193009 -0.0261475 -0.0234006 -0.0193009 -0.0167256 -0.0234006 -0.0203355 -0.0334447 -0.0334106 -0.0381805 -0.0381475 -0.0334106 -0.0328998 -0.0381475 -0.0375773 -0.0381805 -0.0381475 -0.0423315 -0.0423185 -0.0381475 -0.0375773 -0.0423185 -0.0417162 -0.0328998 -0.0319079 -0.0375773 -0.036464 -0.0319079 -0.0304391 -0.036464 -0.0348115 -0.0375773 -0.036464 -0.0417162 -0.040516 -0.036464 -0.0348115 -0.040516 -0.0387195 -0.0423315 -0.0423185 -0.0462478 -0.0462788 -0.0423185 -0.0417162 -0.0462788 -0.0456723 -0.0462478 -0.0462788 -0.050219 -0.0503232 -0.0462788 -0.0456723 -0.0503232 -0.0497423 -0.0417162 -0.040516 -0.0456723 -0.0444149 -0.040516 -0.0387195 -0.0444149 -0.0425038 -0.0456723 -0.0444149 -0.0497423 -0.0484559 -0.0444149 -0.0425038 -0.0484559 -0.0464543 -0.0304391 -0.0285092 -0.0348115 -0.0326362 -0.0285092 -0.0261475 -0.0326362 -0.0299701 -0.0348115 -0.0326362 -0.0387195 -0.0363419 -0.0326362 -0.0299701 -0.0363419 -0.0334156 -0.0261475 -0.0234006 -0.0299701 -0.0268642 -0.0234006 -0.0203355 -0.0268642 -0.0233924 -0.0299701 -0.0268642 -0.0334156 -0.0299945 -0.0268642 -0.0233924 -0.0299945 -0.026158 -0.0387195 -0.0363419 -0.0425038 -0.039951 -0.0363419 -0.0334156 -0.039951 -0.0367872 -0.0425038 -0.039951 -0.0464543 -0.0437433 -0.039951 -0.0367872 -0.0437433 -0.0403499 -0.0334156 -0.0299945 -0.0367872 -0.0330675 -0.0299945 -0.026158 -0.0330675 -0.0288761 -0.0367872 -0.0330675 -0.0403499 -0.0363286 -0.0330675 -0.0288761 -0.0363286 -0.031768 -4.89901e-05 -3.45653e-05 -0.00678509 -0.00558327 -3.45653e-05 -1.92387e-05 -0.00558327 -0.00434286 -0.00678509 -0.00558327 -0.0122938 -0.0102013 -0.00558327 -0.00434286 -0.0102013 -0.00804419 -1.92387e-05 -3.60531e-06 -0.00434286 -0.00312671 -3.60531e-06 9.56113e-06 -0.00312671 -0.00200042 -0.00434286 -0.00312671 -0.00804419 -0.0059247 -0.00312671 -0.00200042 -0.0059247 -0.00395146 -0.0122938 -0.0102013 -0.0167256 -0.0139615 -0.0102013 -0.00804419 -0.0139615 -0.0111095 -0.0167256 -0.0139615 -0.0203355 -0.0170426 -0.0139615 -0.0111095 -0.0170426 -0.013638 -0.00804419 -0.0059247 -0.0111095 -0.00829649 -0.0059247 -0.00395146 -0.00829649 -0.00565759 -0.0111095 -0.00829649 -0.013638 -0.0102653 -0.00829649 -0.00565759 -0.0102653 -0.00707932 9.56113e-06 1.99438e-05 -0.00200042 -0.00110044 1.99438e-05 5.41185e-05 -0.00110044 -0.000215713 -0.00200042 -0.00110044 -0.00395146 -0.00231329 -0.00110044 -0.000215713 -0.00231329 -0.00080761 5.41185e-05 -1.11859e-05 -0.000215713 -0.000943768 -1.11859e-05 0.00771046 -0.000943768 0.00685157 -0.000215713 -0.000943768 -0.00080761 -0.00116002 -0.000943768 0.00685157 -0.00116002 0.00712046 -0.00395146 -0.00231329 -0.00565759 -0.00340872 -0.00231329 -0.00080761 -0.00340872 -0.00137698 -0.00565759 -0.00340872 -0.00707932 -0.00431788 -0.00340872 -0.00137698 -0.00431788 -0.00184374 -0.00080761 -0.00116002 -0.00137698 -0.00133863 -0.00116002 0.00712046 -0.00133863 0.00695463 -0.00137698 -0.00133863 -0.00184374 -0.00146222 -0.00133863 0.00695463 -0.00146222 0.0068366 -0.0203355 -0.0170426 -0.0233924 -0.0196549 -0.0170426 -0.013638 -0.0196549 -0.0157797 -0.0233924 -0.0196549 -0.026158 -0.0220148 -0.0196549 -0.0157797 -0.0220148 -0.0177055 -0.013638 -0.0102653 -0.0157797 -0.0119257 -0.0102653 -0.00707932 -0.0119257 -0.00826622 -0.0157797 -0.0119257 -0.0177055 -0.0134053 -0.0119257 -0.00826622 -0.0134053 -0.00930829 -0.026158 -0.0220148 -0.0288761 -0.0243311 -0.0220148 -0.0177055 -0.0243311 -0.0195871 -0.0288761 -0.0243311 -0.031768 -0.0267966 -0.0243311 -0.0195871 -0.0267966 -0.021586 -0.0177055 -0.0134053 -0.0195871 -0.0148388 -0.0134053 -0.00930829 -0.0148388 -0.0103052 -0.0195871 -0.0148388 -0.021586 -0.016355 -0.0148388 -0.0103052 -0.016355 -0.0113524 -0.00707932 -0.00431788 -0.00826622 -0.0050626 -0.00431788 -0.00184374 -0.0050626 -0.00221229 -0.00826622 -0.0050626 -0.00930829 -0.00570263 -0.0050626 -0.00221229 -0.00570263 -0.00251836 -0.00184374 -0.00146222 -0.00221229 -0.00155724 -0.00146222 0.0068366 -0.00155724 0.00677982 -0.00221229 -0.00155724 -0.00251836 -0.00164046 -0.00155724 0.00677982 -0.00164046 0.00678188 -0.00930829 -0.00570263 -0.0103052 -0.00630506 -0.00570263 -0.00251836 -0.00630506 -0.00279875 -0.0103052 -0.00630506 -0.0113524 -0.00693276 -0.00630506 -0.00279875 -0.00693276 -0.00308645 -0.00251836 -0.00164046 -0.00279875 -0.00172349 -0.00164046 0.00678188 -0.00172349 0.00684587 -0.00279875 -0.00172349 -0.00308645 -0.00181645 -0.00172349 0.00684587 -0.00181645 0.00697081 -0.050219 -0.0503232 -0.0544757 -0.0546883 -0.0503232 -0.0497423 -0.0546883 -0.0541673 -0.0544757 -0.0546883 -0.059195 -0.0595592 -0.0546883 -0.0541673 -0.0595592 -0.0591398 -0.0497423 -0.0484559 -0.0541673 -0.0528824 -0.0484559 -0.0464543 -0.0528824 -0.0508139 -0.0541673 -0.0528824 -0.0591398 -0.057894 -0.0528824 -0.0508139 -0.057894 -0.055788 -0.059195 -0.0595592 -0.0645097 -0.065078 -0.0595592 -0.0591398 -0.065078 -0.0648133 -0.0645097 -0.065078 -0.0705152 -0.0713521 -0.065078 -0.0648133 -0.0713521 -0.0713105 -0.0591398 -0.057894 -0.0648133 -0.0636565 -0.057894 -0.055788 -0.0636565 -0.0615549 -0.0648133 -0.0636565 -0.0713105 -0.0703113 -0.0636565 -0.0615549 -0.0703113 -0.0682766 -0.0464543 -0.0437433 -0.0508139 -0.0479583 -0.0437433 -0.0403499 -0.0479583 -0.0443353 -0.0508139 -0.0479583 -0.055788 -0.0528043 -0.0479583 -0.0443353 -0.0528043 -0.0489512 -0.0403499 -0.0363286 -0.0443353 -0.0399968 -0.0363286 -0.031768 -0.0399968 -0.0350349 -0.0443353 -0.0399968 -0.0489512 -0.0442742 -0.0399968 -0.0350349 -0.0442742 -0.038867 -0.055788 -0.0528043 -0.0615549 -0.0584709 -0.0528043 -0.0489512 -0.0584709 -0.0543951 -0.0615549 -0.0584709 -0.0682766 -0.0651412 -0.0584709 -0.0543951 -0.0651412 -0.0608683 -0.0489512 -0.0442742 -0.0543951 -0.0493606 -0.0442742 -0.038867 -0.0493606 -0.043459 -0.0543951 -0.0493606 -0.0608683 -0.0554699 -0.0493606 -0.043459 -0.0554699 -0.0490279 -0.0705152 -0.0713521 -0.0772742 -0.078458 -0.0713521 -0.0713105 -0.078458 -0.0787275 -0.0772742 -0.078458 -0.0848162 -0.086439 -0.078458 -0.0787275 -0.086439 -0.0871297 -0.0713105 -0.0703113 -0.0787275 -0.0779795 -0.0703113 -0.0682766 -0.0779795 -0.0761045 -0.0787275 -0.0779795 -0.0871297 -0.086758 -0.0779795 -0.0761045 -0.086758 -0.0851755 -0.0848162 -0.086439 -0.0931279 -0.0952928 -0.086439 -0.0871297 -0.0952928 -0.0965363 -0.0931279 -0.0952928 -0.102133 -0.104945 -0.0952928 -0.0965363 -0.104945 -0.106888 -0.0871297 -0.086758 -0.0965363 -0.0967006 -0.086758 -0.0851755 -0.0967006 -0.0955926 -0.0965363 -0.0967006 -0.106888 -0.107779 -0.0967006 -0.0955926 -0.107779 -0.107378 -0.0682766 -0.0651412 -0.0761045 -0.0729993 -0.0651412 -0.0608683 -0.0729993 -0.0685875 -0.0761045 -0.0729993 -0.0851755 -0.0822296 -0.0729993 -0.0685875 -0.0822296 -0.0777867 -0.0608683 -0.0554699 -0.0685875 -0.0628453 -0.0554699 -0.0490279 -0.0628453 -0.0558323 -0.0685875 -0.0628453 -0.0777867 -0.0717668 -0.0628453 -0.0558323 -0.0717668 -0.0641862 -0.0851755 -0.0822296 -0.0955926 -0.0929966 -0.0822296 -0.0777867 -0.0929966 -0.0887013 -0.0955926 -0.0929966 -0.107378 -0.105396 -0.0929966 -0.0887013 -0.10539