# vtk DataFile Version 3.0
#This file was generated by the deal.II library on 2026/1/5 at 14:19:28
ASCII
DATASET UNSTRUCTURED_GRID

POINTS 4096 double
0 0 0
0.03125 0 0
0 0.03125 0
0.03125 0.03125 0
0.03125 0 0
0.0625 0 0
0.03125 0.03125 0
0.0625 0.03125 0
0 0.03125 0
0.03125 0.03125 0
0 0.0625 0
0.03125 0.0625 0
0.03125 0.03125 0
0.0625 0.03125 0
0.03125 0.0625 0
0.0625 0.0625 0
0.0625 0 0
0.09375 0 0
0.0625 0.03125 0
0.09375 0.03125 0
0.09375 0 0
0.125 0 0
0.09375 0.03125 0
0.125 0.03125 0
0.0625 0.03125 0
0.09375 0.03125 0
0.0625 0.0625 0
0.09375 0.0625 0
0.09375 0.03125 0
0.125 0.03125 0
0.09375 0.0625 0
0.125 0.0625 0
0 0.0625 0
0.03125 0.0625 0
0 0.09375 0
0.03125 0.09375 0
0.03125 0.0625 0
0.0625 0.0625 0
0.03125 0.09375 0
0.0625 0.09375 0
0 0.09375 0
0.03125 0.09375 0
0 0.125 0
0.03125 0.125 0
0.03125 0.09375 0
0.0625 0.09375 0
0.03125 0.125 0
0.0625 0.125 0
0.0625 0.0625 0
0.09375 0.0625 0
0.0625 0.09375 0
0.09375 0.09375 0
0.09375 0.0625 0
0.125 0.0625 0
0.09375 0.09375 0
0.125 0.09375 0
0.0625 0.09375 0
0.09375 0.09375 0
0.0625 0.125 0
0.09375 0.125 0
0.09375 0.09375 0
0.125 0.09375 0
0.09375 0.125 0
0.125 0.125 0
0.125 0 0
0.15625 0 0
0.125 0.03125 0
0.15625 0.03125 0
0.15625 0 0
0.1875 0 0
0.15625 0.03125 0
0.1875 0.03125 0
0.125 0.03125 0
0.15625 0.03125 0
0.125 0.0625 0
0.15625 0.0625 0
0.15625 0.03125 0
0.1875 0.03125 0
0.15625 0.0625 0
0.1875 0.0625 0
0.1875 0 0
0.21875 0 0
0.1875 0.03125 0
0.21875 0.03125 0
0.21875 0 0
0.25 0 0
0.21875 0.03125 0
0.25 0.03125 0
0.1875 0.03125 0
0.21875 0.03125 0
0.1875 0.0625 0
0.21875 0.0625 0
0.21875 0.03125 0
0.25 0.03125 0
0.21875 0.0625 0
0.25 0.0625 0
0.125 0.0625 0
0.15625 0.0625 0
0.125 0.09375 0
0.15625 0.09375 0
0.15625 0.0625 0
0.1875 0.0625 0
0.15625 0.09375 0
0.1875 0.09375 0
0.125 0.09375 0
0.15625 0.09375 0
0.125 0.125 0
0.15625 0.125 0
0.15625 0.09375 0
0.1875 0.09375 0
0.15625 0.125 0
0.1875 0.125 0
0.1875 0.0625 0
0.21875 0.0625 0
0.1875 0.09375 0
0.21875 0.09375 0
0.21875 0.0625 0
0.25 0.0625 0
0.21875 0.09375 0
0.25 0.09375 0
0.1875 0.09375 0
0.21875 0.09375 0
0.1875 0.125 0
0.21875 0.125 0
0.21875 0.09375 0
0.25 0.09375 0
0.21875 0.125 0
0.25 0.125 0
0 0.125 0
0.03125 0.125 0
0 0.15625 0
0.03125 0.15625 0
0.03125 0.125 0
0.0625 0.125 0
0.03125 0.15625 0
0.0625 0.15625 0
0 0.15625 0
0.03125 0.15625 0
0 0.1875 0
0.03125 0.1875 0
0.03125 0.15625 0
0.0625 0.15625 0
0.03125 0.1875 0
0.0625 0.1875 0
0.0625 0.125 0
0.09375 0.125 0
0.0625 0.15625 0
0.09375 0.15625 0
0.09375 0.125 0
0.125 0.125 0
0.09375 0.15625 0
0.125 0.15625 0
0.0625 0.15625 0
0.09375 0.15625 0
0.0625 0.1875 0
0.09375 0.1875 0
0.09375 0.15625 0
0.125 0.15625 0
0.09375 0.1875 0
0.125 0.1875 0
0 0.1875 0
0.03125 0.1875 0
0 0.21875 0
0.03125 0.21875 0
0.03125 0.1875 0
0.0625 0.1875 0
0.03125 0.21875 0
0.0625 0.21875 0
0 0.21875 0
0.03125 0.21875 0
0 0.25 0
0.03125 0.25 0
0.03125 0.21875 0
0.0625 0.21875 0
0.03125 0.25 0
0.0625 0.25 0
0.0625 0.1875 0
0.09375 0.1875 0
0.0625 0.21875 0
0.09375 0.21875 0
0.09375 0.1875 0
0.125 0.1875 0
0.09375 0.21875 0
0.125 0.21875 0
0.0625 0.21875 0
0.09375 0.21875 0
0.0625 0.25 0
0.09375 0.25 0
0.09375 0.21875 0
0.125 0.21875 0
0.09375 0.25 0
0.125 0.25 0
0.125 0.125 0
0.15625 0.125 0
0.125 0.15625 0
0.15625 0.15625 0
0.15625 0.125 0
0.1875 0.125 0
0.15625 0.15625 0
0.1875 0.15625 0
0.125 0.15625 0
0.15625 0.15625 0
0.125 0.1875 0
0.15625 0.1875 0
0.15625 0.15625 0
0.1875 0.15625 0
0.15625 0.1875 0
0.1875 0.1875 0
0.1875 0.125 0
0.21875 0.125 0
0.1875 0.15625 0
0.21875 0.15625 0
0.21875 0.125 0
0.25 0.125 0
0.21875 0.15625 0
0.25 0.15625 0
0.1875 0.15625 0
0.21875 0.15625 0
0.1875 0.1875 0
0.21875 0.1875 0
0.21875 0.15625 0
0.25 0.15625 0
0.21875 0.1875 0
0.25 0.1875 0
0.125 0.1875 0
0.15625 0.1875 0
0.125 0.21875 0
0.15625 0.21875 0
0.15625 0.1875 0
0.1875 0.1875 0
0.15625 0.21875 0
0.1875 0.21875 0
0.125 0.21875 0
0.15625 0.21875 0
0.125 0.25 0
0.15625 0.25 0
0.15625 0.21875 0
0.1875 0.21875 0
0.15625 0.25 0
0.1875 0.25 0
0.1875 0.1875 0
0.21875 0.1875 0
0.1875 0.21875 0
0.21875 0.21875 0
0.21875 0.1875 0
0.25 0.1875 0
0.21875 0.21875 0
0.25 0.21875 0
0.1875 0.21875 0
0.21875 0.21875 0
0.1875 0.25 0
0.21875 0.25 0
0.21875 0.21875 0
0.25 0.21875 0
0.21875 0.25 0
0.25 0.25 0
0.25 0 0
0.28125 0 0
0.25 0.03125 0
0.28125 0.03125 0
0.28125 0 0
0.3125 0 0
0.28125 0.03125 0
0.3125 0.03125 0
0.25 0.03125 0
0.28125 0.03125 0
0.25 0.0625 0
0.28125 0.0625 0
0.28125 0.03125 0
0.3125 0.03125 0
0.28125 0.0625 0
0.3125 0.0625 0
0.3125 0 0
0.34375 0 0
0.3125 0.03125 0
0.34375 0.03125 0
0.34375 0 0
0.375 0 0
0.34375 0.03125 0
0.375 0.03125 0
0.3125 0.03125 0
0.34375 0.03125 0
0.3125 0.0625 0
0.34375 0.0625 0
0.34375 0.03125 0
0.375 0.03125 0
0.34375 0.0625 0
0.375 0.0625 0
0.25 0.0625 0
0.28125 0.0625 0
0.25 0.09375 0
0.28125 0.09375 0
0.28125 0.0625 0
0.3125 0.0625 0
0.28125 0.09375 0
0.3125 0.09375 0
0.25 0.09375 0
0.28125 0.09375 0
0.25 0.125 0
0.28125 0.125 0
0.28125 0.09375 0
0.3125 0.09375 0
0.28125 0.125 0
0.3125 0.125 0
0.3125 0.0625 0
0.34375 0.0625 0
0.3125 0.09375 0
0.34375 0.09375 0
0.34375 0.0625 0
0.375 0.0625 0
0.34375 0.09375 0
0.375 0.09375 0
0.3125 0.09375 0
0.34375 0.09375 0
0.3125 0.125 0
0.34375 0.125 0
0.34375 0.09375 0
0.375 0.09375 0
0.34375 0.125 0
0.375 0.125 0
0.375 0 0
0.40625 0 0
0.375 0.03125 0
0.40625 0.03125 0
0.40625 0 0
0.4375 0 0
0.40625 0.03125 0
0.4375 0.03125 0
0.375 0.03125 0
0.40625 0.03125 0
0.375 0.0625 0
0.40625 0.0625 0
0.40625 0.03125 0
0.4375 0.03125 0
0.40625 0.0625 0
0.4375 0.0625 0
0.4375 0 0
0.46875 0 0
0.4375 0.03125 0
0.46875 0.03125 0
0.46875 0 0
0.5 0 0
0.46875 0.03125 0
0.5 0.03125 0
0.4375 0.03125 0
0.46875 0.03125 0
0.4375 0.0625 0
0.46875 0.0625 0
0.46875 0.03125 0
0.5 0.03125 0
0.46875 0.0625 0
0.5 0.0625 0
0.375 0.0625 0
0.40625 0.0625 0
0.375 0.09375 0
0.40625 0.09375 0
0.40625 0.0625 0
0.4375 0.0625 0
0.40625 0.09375 0
0.4375 0.09375 0
0.375 0.09375 0
0.40625 0.09375 0
0.375 0.125 0
0.40625 0.125 0
0.40625 0.09375 0
0.4375 0.09375 0
0.40625 0.125 0
0.4375 0.125 0
0.4375 0.0625 0
0.46875 0.0625 0
0.4375 0.09375 0
0.46875 0.09375 0
0.46875 0.0625 0
0.5 0.0625 0
0.46875 0.09375 0
0.5 0.09375 0
0.4375 0.09375 0
0.46875 0.09375 0
0.4375 0.125 0
0.46875 0.125 0
0.46875 0.09375 0
0.5 0.09375 0
0.46875 0.125 0
0.5 0.125 0
0.25 0.125 0
0.28125 0.125 0
0.25 0.15625 0
0.28125 0.15625 0
0.28125 0.125 0
0.3125 0.125 0
0.28125 0.15625 0
0.3125 0.15625 0
0.25 0.15625 0
0.28125 0.15625 0
0.25 0.1875 0
0.28125 0.1875 0
0.28125 0.15625 0
0.3125 0.15625 0
0.28125 0.1875 0
0.3125 0.1875 0
0.3125 0.125 0
0.34375 0.125 0
0.3125 0.15625 0
0.34375 0.15625 0
0.34375 0.125 0
0.375 0.125 0
0.34375 0.15625 0
0.375 0.15625 0
0.3125 0.15625 0
0.34375 0.15625 0
0.3125 0.1875 0
0.34375 0.1875 0
0.34375 0.15625 0
0.375 0.15625 0
0.34375 0.1875 0
0.375 0.1875 0
0.25 0.1875 0
0.28125 0.1875 0
0.25 0.21875 0
0.28125 0.21875 0
0.28125 0.1875 0
0.3125 0.1875 0
0.28125 0.21875 0
0.3125 0.21875 0
0.25 0.21875 0
0.28125 0.21875 0
0.25 0.25 0
0.28125 0.25 0
0.28125 0.21875 0
0.3125 0.21875 0
0.28125 0.25 0
0.3125 0.25 0
0.3125 0.1875 0
0.34375 0.1875 0
0.3125 0.21875 0
0.34375 0.21875 0
0.34375 0.1875 0
0.375 0.1875 0
0.34375 0.21875 0
0.375 0.21875 0
0.3125 0.21875 0
0.34375 0.21875 0
0.3125 0.25 0
0.34375 0.25 0
0.34375 0.21875 0
0.375 0.21875 0
0.34375 0.25 0
0.375 0.25 0
0.375 0.125 0
0.40625 0.125 0
0.375 0.15625 0
0.40625 0.15625 0
0.40625 0.125 0
0.4375 0.125 0
0.40625 0.15625 0
0.4375 0.15625 0
0.375 0.15625 0
0.40625 0.15625 0
0.375 0.1875 0
0.40625 0.1875 0
0.40625 0.15625 0
0.4375 0.15625 0
0.40625 0.1875 0
0.4375 0.1875 0
0.4375 0.125 0
0.46875 0.125 0
0.4375 0.15625 0
0.46875 0.15625 0
0.46875 0.125 0
0.5 0.125 0
0.46875 0.15625 0
0.5 0.15625 0
0.4375 0.15625 0
0.46875 0.15625 0
0.4375 0.1875 0
0.46875 0.1875 0
0.46875 0.15625 0
0.5 0.15625 0
0.46875 0.1875 0
0.5 0.1875 0
0.375 0.1875 0
0.40625 0.1875 0
0.375 0.21875 0
0.40625 0.21875 0
0.40625 0.1875 0
0.4375 0.1875 0
0.40625 0.21875 0
0.4375 0.21875 0
0.375 0.21875 0
0.40625 0.21875 0
0.375 0.25 0
0.40625 0.25 0
0.40625 0.21875 0
0.4375 0.21875 0
0.40625 0.25 0
0.4375 0.25 0
0.4375 0.1875 0
0.46875 0.1875 0
0.4375 0.21875 0
0.46875 0.21875 0
0.46875 0.1875 0
0.5 0.1875 0
0.46875 0.21875 0
0.5 0.21875 0
0.4375 0.21875 0
0.46875 0.21875 0
0.4375 0.25 0
0.46875 0.25 0
0.46875 0.21875 0
0.5 0.21875 0
0.46875 0.25 0
0.5 0.25 0
0 0.25 0
0.03125 0.25 0
0 0.28125 0
0.03125 0.28125 0
0.03125 0.25 0
0.0625 0.25 0
0.03125 0.28125 0
0.0625 0.28125 0
0 0.28125 0
0.03125 0.28125 0
0 0.3125 0
0.03125 0.3125 0
0.03125 0.28125 0
0.0625 0.28125 0
0.03125 0.3125 0
0.0625 0.3125 0
0.0625 0.25 0
0.09375 0.25 0
0.0625 0.28125 0
0.09375 0.28125 0
0.09375 0.25 0
0.125 0.25 0
0.09375 0.28125 0
0.125 0.28125 0
0.0625 0.28125 0
0.09375 0.28125 0
0.0625 0.3125 0
0.09375 0.3125 0
0.09375 0.28125 0
0.125 0.28125 0
0.09375 0.3125 0
0.125 0.3125 0
0 0.3125 0
0.03125 0.3125 0
0 0.34375 0
0.03125 0.34375 0
0.03125 0.3125 0
0.0625 0.3125 0
0.03125 0.34375 0
0.0625 0.34375 0
0 0.34375 0
0.03125 0.34375 0
0 0.375 0
0.03125 0.375 0
0.03125 0.34375 0
0.0625 0.34375 0
0.03125 0.375 0
0.0625 0.375 0
0.0625 0.3125 0
0.09375 0.3125 0
0.0625 0.34375 0
0.09375 0.34375 0
0.09375 0.3125 0
0.125 0.3125 0
0.09375 0.34375 0
0.125 0.34375 0
0.0625 0.34375 0
0.09375 0.34375 0
0.0625 0.375 0
0.09375 0.375 0
0.09375 0.34375 0
0.125 0.34375 0
0.09375 0.375 0
0.125 0.375 0
0.125 0.25 0
0.15625 0.25 0
0.125 0.28125 0
0.15625 0.28125 0
0.15625 0.25 0
0.1875 0.25 0
0.15625 0.28125 0
0.1875 0.28125 0
0.125 0.28125 0
0.15625 0.28125 0
0.125 0.3125 0
0.15625 0.3125 0
0.15625 0.28125 0
0.1875 0.28125 0
0.15625 0.3125 0
0.1875 0.3125 0
0.1875 0.25 0
0.21875 0.25 0
0.1875 0.28125 0
0.21875 0.28125 0
0.21875 0.25 0
0.25 0.25 0
0.21875 0.28125 0
0.25 0.28125 0
0.1875 0.28125 0
0.21875 0.28125 0
0.1875 0.3125 0
0.21875 0.3125 0
0.21875 0.28125 0
0.25 0.28125 0
0.21875 0.3125 0
0.25 0.3125 0
0.125 0.3125 0
0.15625 0.3125 0
0.125 0.34375 0
0.15625 0.34375 0
0.15625 0.3125 0
0.1875 0.3125 0
0.15625 0.34375 0
0.1875 0.34375 0
0.125 0.34375 0
[...]
POINT_DATA 4096
SCALARS u_x double 1
LOOKUP_TABLE default
9.47188e-06 -5.77758e-08 -4.5197e-05 -0.000291664 -5.77758e-08 -2.5985e-05 -0.000291664 -0.000814484 -4.5197e-05 -0.000291664 1.18246e-05 -0.000395871 -0.000291664 -0.000814484 -0.000395871 -0.00104312 -2.5985e-05 -5.83844e-05 -0.000814484 -0.00139925 -5.83844e-05 -8.89263e-05 -0.00139925 -0.00197596 -0.000814484 -0.00139925 -0.00104312 -0.00178085 -0.00139925 -0.00197596 -0.00178085 -0.0025013 1.18246e-05 -0.000395871 0.000262139 -0.000455026 -0.000395871 -0.00104312 -0.000455026 -0.00108978 0.000262139 -0.000455026 0.000701692 -0.00053457 -0.000455026 -0.00108978 -0.00053457 -0.00110911 -0.00104312 -0.00178085 -0.00108978 -0.00187911 -0.00178085 -0.0025013 -0.00187911 -0.00263347 -0.00108978 -0.00187911 -0.00110911 -0.00194544 -0.00187911 -0.00263347 -0.00194544 -0.00272093 -8.89263e-05 -0.000118049 -0.00197596 -0.00253198 -0.000118049 -0.000145739 -0.00253198 -0.0030604 -0.00197596 -0.00253198 -0.0025013 -0.00319782 -0.00253198 -0.0030604 -0.00319782 -0.00385947 -0.000145739 -0.000171751 -0.0030604 -0.00355588 -0.000171751 -0.000195821 -0.00355588 -0.00401336 -0.0030604 -0.00355588 -0.00385947 -0.00447972 -0.00355588 -0.00401336 -0.00447972 -0.0050521 -0.0025013 -0.00319782 -0.00263347 -0.00336545 -0.00319782 -0.00385947 -0.00336545 -0.00406004 -0.00263347 -0.00336545 -0.00272093 -0.00347764 -0.00336545 -0.00406004 -0.00347764 -0.00419444 -0.00385947 -0.00447972 -0.00406004 -0.00471106 -0.00447972 -0.0050521 -0.00471106 -0.00531161 -0.00406004 -0.00471106 -0.00419444 -0.00486606 -0.00471106 -0.00531161 -0.00486606 -0.00548528 0.000701692 -0.00053457 0.00133301 -0.000646255 -0.00053457 -0.00110911 -0.000646255 -0.00113177 0.00133301 -0.000646255 0.00216295 -0.000791891 -0.000646255 -0.00113177 -0.000791891 -0.00116076 -0.00110911 -0.00194544 -0.00113177 -0.00202958 -0.00194544 -0.00272093 -0.00202958 -0.00283134 -0.00113177 -0.00202958 -0.00116076 -0.00213733 -0.00202958 -0.00283134 -0.00213733 -0.00297243 0.00216295 -0.000791891 0.00320118 -0.000973185 -0.000791891 -0.00116076 -0.000973185 -0.00119682 0.00320118 -0.000973185 0.00446012 -0.00119237 -0.000973185 -0.00119682 -0.00119237 -0.00124068 -0.00116076 -0.00213733 -0.00119682 -0.00227078 -0.00213733 -0.00297243 -0.00227078 -0.00314699 -0.00119682 -0.00227078 -0.00124068 -0.00243203 -0.00227078 -0.00314699 -0.00243203 -0.00335777 -0.00272093 -0.00347764 -0.00283134 -0.00361955 -0.00347764 -0.00419444 -0.00361955 -0.0043645 -0.00283134 -0.00361955 -0.00297243 -0.00380072 -0.00361955 -0.0043645 -0.00380072 -0.00458144 -0.00419444 -0.00486606 -0.0043645 -0.00506216 -0.00486606 -0.00548528 -0.00506216 -0.00570485 -0.0043645 -0.00506216 -0.00458144 -0.00531209 -0.00506216 -0.00570485 -0.00531209 -0.00598444 -0.00297243 -0.00380072 -0.00314699 -0.00402457 -0.00380072 -0.00458144 -0.00402457 -0.0048492 -0.00314699 -0.00402457 -0.00335777 -0.00429452 -0.00402457 -0.0048492 -0.00429452 -0.00517165 -0.00458144 -0.00531209 -0.0048492 -0.00562021 -0.00531209 -0.00598444 -0.00562021 -0.00632871 -0.0048492 -0.00562021 -0.00517165 -0.00599071 -0.00562021 -0.00632871 -0.00599071 -0.00674203 -0.000195821 -0.000217702 -0.00401336 -0.00442821 -0.000217702 -0.000237166 -0.00442821 -0.00479634 -0.00401336 -0.00442821 -0.0050521 -0.00557086 -0.00442821 -0.00479634 -0.00557086 -0.00603089 -0.000237166 -0.000254007 -0.00479634 -0.00511414 -0.000254007 -0.000268053 -0.00511414 -0.00537856 -0.00479634 -0.00511414 -0.00603089 -0.00642772 -0.00511414 -0.00537856 -0.00642772 -0.00675762 -0.0050521 -0.00557086 -0.00531161 -0.00585568 -0.00557086 -0.00603089 -0.00585568 -0.00633795 -0.00531161 -0.00585568 -0.00548528 -0.00604595 -0.00585568 -0.00633795 -0.00604595 -0.00654266 -0.00603089 -0.00642772 -0.00633795 -0.0067538 -0.00642772 -0.00675762 -0.0067538 -0.00709935 -0.00633795 -0.0067538 -0.00654266 -0.00697074 -0.0067538 -0.00709935 -0.00697074 -0.00732629 -0.000268053 -0.000279167 -0.00537856 -0.00558709 -0.000279167 -0.000287236 -0.00558709 -0.00573779 -0.00537856 -0.00558709 -0.00675762 -0.00701749 -0.00558709 -0.00573779 -0.00701749 -0.00720496 -0.000287236 -0.000292175 -0.00573779 -0.00582924 -0.000292175 -0.00029393 -0.00582924 -0.00586059 -0.00573779 -0.00582924 -0.00720496 -0.00731833 -0.00582924 -0.00586059 -0.00731833 -0.00735659 -0.00675762 -0.00701749 -0.00709935 -0.00737144 -0.00701749 -0.00720496 -0.00737144 -0.00756765 -0.00709935 -0.00737144 -0.00732629 -0.00760616 -0.00737144 -0.00756765 -0.00760616 -0.00780793 -0.00720496 -0.00731833 -0.00756765 -0.00768622 -0.00731833 -0.00735659 -0.00768622 -0.00772614 -0.00756765 -0.00768622 -0.00780793 -0.00792986 -0.00768622 -0.00772614 -0.00792986 -0.00797094 -0.00548528 -0.00604595 -0.00570485 -0.00628632 -0.00604595 -0.00654266 -0.00628632 -0.00680105 -0.00570485 -0.00628632 -0.00598444 -0.00659209 -0.00628632 -0.00680105 -0.00659209 -0.00712943 -0.00654266 -0.00697074 -0.00680105 -0.00724433 -0.00697074 -0.00732629 -0.00724433 -0.00761228 -0.00680105 -0.00724433 -0.00712943 -0.00759174 -0.00724433 -0.00761228 -0.00759174 -0.00797513 -0.00598444 -0.00659209 -0.00632871 -0.00696813 -0.00659209 -0.00712943 -0.00696813 -0.00753279 -0.00632871 -0.00696813 -0.00674203 -0.00741889 -0.00696813 -0.00753279 -0.00741889 -0.00801554 -0.00712943 -0.00759174 -0.00753279 -0.00801796 -0.00759174 -0.00797513 -0.00801796 -0.00841985 -0.00753279 -0.00801796 -0.00801554 -0.00852736 -0.00801796 -0.00841985 -0.00852736 -0.00895069 -0.00732629 -0.00760616 -0.00761228 -0.00790176 -0.00760616 -0.00780793 -0.00790176 -0.00811038 -0.00761228 -0.00790176 -0.00797513 -0.00827654 -0.00790176 -0.00811038 -0.00827654 -0.00849364 -0.00780793 -0.00792986 -0.00811038 -0.00823645 -0.00792986 -0.00797094 -0.00823645 -0.00827898 -0.00811038 -0.00823645 -0.00849364 -0.00862482 -0.00823645 -0.00827898 -0.00862482 -0.00866912 -0.00797513 -0.00827654 -0.00841985 -0.00873549 -0.00827654 -0.00849364 -0.00873549 -0.0089627 -0.00841985 -0.00873549 -0.00895069 -0.00928276 -0.00873549 -0.0089627 -0.00928276 -0.00952157 -0.00849364 -0.00862482 -0.0089627 -0.00909994 -0.00862482 -0.00866912 -0.00909994 -0.00914633 -0.0089627 -0.00909994 -0.00952157 -0.00966575 -0.00909994 -0.00914633 -0.00966575 -0.00971454 0.00446012 -0.00119237 0.00595497 -0.00145222 -0.00119237 -0.00124068 -0.00145222 -0.00129333 0.00595497 -0.00145222 0.00770395 -0.00175613 -0.00145222 -0.00129333 -0.00175613 -0.00135609 -0.00124068 -0.00243203 -0.00129333 -0.00262379 -0.00243203 -0.00335777 -0.00262379 -0.00360829 -0.00129333 -0.00262379 -0.00135609 -0.00284946 -0.00262379 -0.00360829 -0.00284946 -0.00390294 0.00770395 -0.00175613 0.00972869 -0.0021082 -0.00175613 -0.00135609 -0.0021082 -0.00143073 0.00972869 -0.0021082 0.0120548 -0.00251334 -0.0021082 -0.00143073 -0.00251334 -0.00151956 -0.00135609 -0.00284946 -0.00143073 -0.00311337 -0.00284946 -0.00390294 -0.00311337 -0.00424728 -0.00143073 -0.00311337 -0.00151956 -0.003421 -0.00311337 -0.00424728 -0.003421 -0.00464834 -0.00335777 -0.00429452 -0.00360829 -0.00461484 -0.00429452 -0.00517165 -0.00461484 -0.00555363 -0.00360829 -0.00461484 -0.00390294 -0.00499087 -0.00461484 -0.00555363 -0.00499087 -0.00600115 -0.00517165 -0.00599071 -0.00555363 -0.00642881 -0.00599071 -0.00674203 -0.00642881 -0.00722981 -0.00555363 -0.00642881 -0.00600115 -0.0069409 -0.00642881 -0.00722981 -0.0069409 -0.00779862 -0.00390294 -0.00499087 -0.00424728 -0.00542933 -0.00499087 -0.00600115 -0.00542933 -0.00652165 -0.00424728 -0.00542933 -0.00464834 -0.00593858 -0.00542933 -0.00652165 -0.00593858 -0.00712434 -0.00600115 -0.0069409 -0.00652165 -0.00753484 -0.0069409 -0.00779862 -0.00753484 -0.00845639 -0.00652165 -0.00753484 -0.00712434 -0.00822021 -0.00753484 -0.00845639 -0.00822021 -0.00921268 0.0120548 -0.00251334 0.0147122 -0.00297749 -0.00251334 -0.00151956 -0.00297749 -0.00162565 0.0147122 -0.00297749 0.0177363 -0.00350781 -0.00297749 -0.00162565 -0.00350781 -0.00175318 -0.00151956 -0.003421 -0.00162565 -0.00377937 -0.003421 -0.00464834 -0.00377937 -0.00511507 -0.00162565 -0.00377937 -0.00175318 -0.00419751 -0.00377937 -0.00511507 -0.00419751 -0.00565894 0.0177363 -0.00350781 0.0211686 -0.00411307 -0.00350781 -0.00175318 -0.00411307 -0.00190778 0.0211686 -0.00411307 0.0250583 -0.00480405 -0.00411307 -0.00190778 -0.00480405 -0.00209726 -0.00175318 -0.00419751 -0.00190778 -0.00468727 -0.00419751 -0.00565894 -0.00468727 -0.00629487 -0.00190778 -0.00468727 -0.00209726 -0.00526431 -0.00468727 -0.00629487 -0.00526431 -0.00704244 -0.00464834 -0.00593858 -0.00511507 -0.00652919 -0.00593858 -0.00712434 -0.00652919 -0.00782068 -0.00511507 -0.00652919 -0.00565894 -0.00721455 -0.00652919 -0.00782068 -0.00721455 -0.00862504 -0.00712434 -0.00822021 -0.00782068 -0.00900878 -0.00822021 -0.00921268 -0.00900878 -0.010079 -0.00782068 -0.00900878 -0.00862504 -0.00991502 -0.00900878 -0.010079 -0.00991502 -0.0110693 -0.00565894 -0.00721455 -0.00629487 -0.00801185 -0.00721455 -0.00862504 -0.00801185 -0.0095555 -0.00629487 -0.00801185 -0.00704244 -0.00894328 -0.00801185 -0.0095555 -0.00894328 -0.010635 -0.00862504 -0.00991502 -0.0095555 -0.0109568 -0.00991502 -0.0110693 -0.0109568 -0.0122002 -0.0095555 -0.0109568 -0.010635 -0.0121563 -0.0109568 -0.0122002 -0.0121563 -0.0134921 -0.00674203 -0.00741889 -0.00722981 -0.00794981 -0.00741889 -0.00801554 -0.00794981 -0.00858307 -0.00722981 -0.00794981 -0.00779862 -0.00856741 -0.00794981 -0.00858307 -0.00856741 -0.00924171 -0.00801554 -0.00852736 -0.00858307 -0.00912515 -0.00852736 -0.00895069 -0.00912515 -0.00957266 -0.00858307 -0.00912515 -0.00924171 -0.00981739 -0.00912515 -0.00957266 -0.00981739 -0.0102915 -0.00779862 -0.00856741 -0.00845639 -0.00927949 -0.00856741 -0.00924171 -0.00927949 -0.0099989 -0.00845639 -0.00927949 -0.00921268 -0.0100952 -0.00927949 -0.0099989 -0.0100952 -0.0108633 -0.00924171 -0.00981739 -0.0099989 -0.0106111 -0.00981739 -0.0102915 -0.0106111 -0.0111137 -0.0099989 -0.0106111 -0.0108633 -0.0115141 -0.0106111 -0.0111137 -0.0115141 -0.0120465 -0.00895069 -0.00928276 -0.00957266 -0.00992314 -0.00928276 -0.00952157 -0.00992314 -0.0101749 -0.00957266 -0.00992314 -0.0102915 -0.0106621 -0.00992314 -0.0101749 -0.0106621 -0.0109279 -0.00952157 -0.00966575 -0.0101749 -0.0103268 -0.00966575 -0.00971454 -0.0103268 -0.0103782 -0.0101749 -0.0103268 -0.0109279 -0.0110881 -0.0103268 -0.0103782 -0.0110881 -0.0111424 -0.0102915 -0.0106621 -0.0111137 -0.0115057 -0.0106621 -0.0109279 -0.0115057 -0.0117862 -0.0111137 -0.0115057 -0.0120465 -0.0124603 -0.0115057 -0.0117862 -0.0124603 -0.0127558 -0.0109279 -0.0110881 -0.0117862 -0.0119551 -0.0110881 -0.0111424 -0.0119551 -0.0120123 -0.0117862 -0.0119551 -0.0127558 -0.0129334 -0.0119551 -0.0120123 -0.0129334 -0.0129936 -0.00921268 -0.0100952 -0.010079 -0.0110255 -0.0100952 -0.0108633 -0.0110255 -0.0118447 -0.010079 -0.0110255 -0.0110693 -0.0120831 -0.0110255 -0.0118447 -0.0120831 -0.0129546 -0.0108633 -0.0115141 -0.0118447 -0.0125354 -0.0115141 -0.0120465 -0.0125354 -0.0130977 -0.0118447 -0.0125354 -0.0129546 -0.0136847 -0.0125354 -0.0130977 -0.0136847 -0.0142757 -0.0110693 -0.0120831 -0.0122002 -0.0132829 -0.0120831 -0.0129546 -0.0132829 -0.0142059 -0.0122002 -0.0132829 -0.0134921 -0.0146427 -0.0132829 -0.0142059 -0.0146427 -0.0156131 -0.0129546 -0.0136847 -0.0142059 -0.0149728 -0.0136847 -0.0142757 -0.0149728 -0.0155891 -0.0142059 -0.0149728 -0.0156131 -0.0164112 -0.0149728 -0.0155891 -0.0164112 -0.0170466 -0.0120465 -0.0124603 -0.0130977 -0.0135331 -0.0124603 -0.0127558 -0.0135331 -0.0138429 -0.0130977 -0.0135331 -0.0142757 -0.0147309 -0.0135331 -0.0138429 -0.0147309 -0.0150536 -0.0127558 -0.0129334 -0.0138429 -0.0140288 -0.0129334 -0.0129936 -0.0140288 -0.0140918 -0.0138429 -0.0140288 -0.0150536 -0.0152467 -0.0140288 -0.0140918 -0.0152467 -0.015312 -0.0142757 -0.0147309 -0.0155891 -0.0160608 -0.0147309 -0.0150536 -0.0160608 -0.0163935 -0.0155891 -0.0160608 -0.0170466 -0.017529 -0.0160608 -0.0163935 -0.017529 -0.0178671 -0.0150536 -0.0152467 -0.0163935 -0.0165918 -0.0152467 -0.015312 -0.0165918 -0.0166587 -0.0163935 -0.0165918 -0.0178671 -0.0180676 -0.0165918 -0.0166587 -0.0180676 -0.018135 -0.00029393 -0.000292487 -0.00586059 -0.00583152 -0.000292487 -0.000287856 -0.00583152 -0.00574227 -0.00586059 -0.00583152 -0.00735659 -0.00731937 -0.00583152 -0.00574227 -0.00731937 -0.00720701 -0.000287856 -0.000280071 -0.00574227 -0.00559362 -0.000280071 -0.000269202 -0.00559362 -0.00538692 -0.00574227 -0.00559362 -0.00720701 -0.0070205 -0.00559362 -0.00538692 -0.0070205 -0.00676152 -0.00735659 -0.00731937 -0.00772614 -0.00768704 -0.00731937 -0.00720701 -0.00768704 -0.00756927 -0.00772614 -0.00768704 -0.00797094 -0.00793083 -0.00768704 -0.00756927 -0.00793083 -0.00780984 -0.00720701 -0.0070205 -0.00756927 -0.00737385 -0.0070205 -0.00676152 -0.00737385 -0.00710249 -0.00756927 -0.00737385 -0.00780984 -0.00760899 -0.00737385 -0.00710249 -0.00760899 -0.00732999 -0.000269202 -0.000255356 -0.00538692 -0.00512404 -0.000255356 -0.000238669 -0.00512404 -0.00480745 -0.00538692 -0.00512404 -0.00676152 -0.00643244 -0.00512404 -0.00480745 -0.00643244 -0.0060363 -0.000238669 -0.000219301 -0.00480745 -0.00444016 -0.000219301 -0.00019746 -0.00444016 -0.00402573 -0.00480745 -0.00444016 -0.0060363 -0.00557684 -0.00444016 -0.00402573 -0.00557684 -0.00505852 -0.00676152 -0.00643244 -0.00710249 -0.00675763 -0.00643244 -0.0060363 -0.00675763 -0.0063424 -0.00710249 -0.00675763 -0.00732999 -0.00697524 -0.00675763 -0.0063424 -0.00697524 -0.00654788 -0.0060363 -0.00557684 -0.0063424 -0.00586067 -0.00557684 -0.00505852 -0.00586067 -0.00531701 -0.0063424 -0.00586067 -0.00654788 -0.00605177 -0.00586067 -0.00531701 -0.00605177 -0.00549155 -0.00797094 -0.00793083 -0.00827898 -0.00823762 -0.00793083 -0.00780984 -0.00823762 -0.00811269 -0.00827898 -0.00823762 -0.00866912 -0.00862621 -0.00823762 -0.00811269 -0.00862621 -0.0084964 -0.00780984 -0.00760899 -0.00811269 -0.00790518 -0.00760899 -0.00732999 -0.00790518 -0.00761675 -0.00811269 -0.00790518 -0.0084964 -0.00828062 -0.00790518 -0.00761675 -0.00828062 -0.00798047 -0.00866912 -0.00862621 -0.00914633 -0.00910158 -0.00862621 -0.0084964 -0.00910158 -0.00896595 -0.00914633 -0.00910158 -0.00971454 -0.00966766 -0.00910158 -0.00896595 -0.00966766 -0.00952536 -0.0084964 -0.00828062 -0.00896595 -0.00874032 -0.00828062 -0.00798047 -0.00874032 -0.00842617 -0.00896595 -0.00874032 -0.00952536 -0.0092884 -0.00874032 -0.00842617 -0.0092884 -0.0089581 -0.00732999 -0.00697524 -0.00761675 -0.00724977 -0.00697524 -0.00654788 -0.00724977 -0.00680734 -0.00761675 -0.00724977 -0.00798047 -0.00759824 -0.00724977 -0.00680734 -0.00759824 -0.00713698 -0.00654788 -0.00605177 -0.00680734 -0.00629333 -0.00605177 -0.00549155 -0.00629333 -0.0057124 -0.00680734 -0.00629333 -0.00713698 -0.00660051 -0.00629333 -0.0057124 -0.00660051 -0.00599352 -0.00798047 -0.00759824 -0.00842617 -0.00802567 -0.00759824 -0.00713698 -0.00802567 -0.00754175 -0.00842617 -0.00802567 -0.0089581 -0.00853644 -0.00802567 -0.00754175 -0.00853644 -0.00802614 -0.00713698 -0.00660051 -0.00754175 -0.00697816 -0.00660051 -0.00599352 -0.00697816 -0.00633957 -0.00754175 -0.00697816 -0.00802614 -0.00743079 -0.00697816 -0.00633957 -0.00743079 -0.00675497 -0.00019746 -0.000173301 -0.00402573 -0.00356847 -0.000173301 -0.000147492 -0.00356847 -0.00307163 -0.00402573 -0.00356847 -0.00505852 -0.00448645 -0.00356847 -0.00307163 -0.00448645 -0.00386526 -0.000147492 -0.000118489 -0.00307163 -0.002551 -0.000118489 -9.41254e-05 -0.002551 -0.00195001 -0.00307163 -0.002551 -0.00386526 -0.00321159 -0.002551 -0.00195001 -0.00321159 -0.00246024 -0.00505852 -0.00448645 -0.00531701 -0.00471674 -0.00448645 -0.00386526 -0.00471674 -0.00406476 -0.00531701 -0.00471674 -0.00549155 -0.00487263 -0.00471674 -0.00406476 -0.00487263 -0.00420005 -0.00386526 -0.00321159 -0.00406476 -0.00337778 -0.00321159 -0.00246024 -0.00337778 -0.00259184 -0.00406476 -0.00337778 -0.00420005 -0.00349111 -0.00337778 -0.00259184 -0.00349111 -0.00268171 -9.41254e-05 -6.88164e-05 -0.00195001 -0.00160342 -6.88164e-05 0.000117679 -0.00160342 0.000224268 -0.00195001 -0.00160342 -0.00246024 -0.00200897 -0.00160342 0.000224268 -0.00200897 0.000113598 0.000117679 -0.000128255 0.000224268 -0.00475651 -0.000128255 0.0343041 -0.00475651 0.0304912 0.000224268 -0.00475651 0.000113598 -0.00507182 -0.00475651 0.0304912 -0.00507182 0.0325269 -0.00246024 -0.00200897 -0.00259184 -0.00211435 -0.00200897 0.000113598 -0.00211435 7.60056e-05 -0.00259184 -0.00211435 -0.00268171 -0.00218497 -0.00211435 7.60056e-05 -0.00218497 4.96416e-05 0.000113598 -0.00507182 7.60056e-05 -0.0052399 -0.00507182 0.0325269 -0.0052399 0.0326248 7.60056e-05 -0.0052399 4.96416e-05 -0.0053218 -0.0052399 0.0326248 -0.0053218 0.0330379 -0.00549155 -0.00487263 -0.0057124 -0.00507007 -0.00487263 -0.00420005 -0.00507007 -0.00437155 -0.0057124 -0.00507007 -0.00599352 -0.00532163 -0.00507007 -0.00437155 -0.00532163 -0.00459021 -0.00420005 -0.00349111 -0.00437155 -0.00363466 -0.00349111 -0.00268171 -0.00363466 -0.00279411 -0.00437155 -0.00363466 -0.00459021 -0.0038176 -0.00363466 -0.00279411 -0.0038176 -0.00293691 -0.00599352 -0.00532163 -0.00633957 -0.00563166 -0.00532163 -0.00459021 -0.00563166 -0.00485996 -0.00633957 -0.00563166 -0.00675497 -0.0060044 -0.00563166 -0.00485996 -0.0060044 -0.00518473 -0.00459021 -0.0038176 -0.00485996 -0.00404343 -0.0038176 -0.00293691 -0.00404343 -0.00311333 -0.00485996 -0.00404343 -0.00518473 -0.00431569 -0.00404343 -0.00311333 -0.00431569 -0.00332635 -0.00268171 -0.00218497 -0.00279411 -0.00227057 -0.00218497 4.96416e-05 -0.00227057 2.78145e-05 -0.00279411 -0.00227057 -0.00293691 -0.0023794 -0.00227057 2.78145e-05 -0.0023794 -1.77019e-06 4.96416e-05 -0.0053218 2.78145e-05 -0.00542775 -0.0053218 0.0330379 -0.00542775 0.0336781 2.78145e-05 -0.00542775 -1.77019e-06 -0.00557328 -0.00542775 0.0336781 -0.00557328 0.0345079 -0.00293691 -0.0023794 -0.00311333 -0.00251423 -0.0023794 -1.77019e-06 -0.00251423 -3.93354e-05 -0.00311333 -0.00251423 -0.00332635 -0.00267729 -0.00251423 -3.93354e-05 -0.00267729 -8.53468e-05 -1.77019e-06 -0.00557328 -3.93354e-05 -0.00575448 -0.00557328 0.0345079 -0.00575448 0.0355487 -3.93354e-05 -0.00575448 -8.53468e-05 -0.00597382 -0.00575448 0.0355487 -0.00597382 0.03681 -0.00971454 -0.00966766 -0.0103782 -0.010329 -0.00966766 -0.00952536 -0.010329 -0.0101793 -0.0103782 -0.010329 -0.0111424 -0.0110906 -0.010329 -0.0101793 -0.0110906 -0.0109329 -0.00952536 -0.0092884 -0.0101793 -0.00992967 -0.0092884 -0.0089581 -0.00992967 -0.00958128 -0.0101793 -0.00992967 -0.0109329 -0.0106696 -0.00992967 -0.00958128 -0.0106696 -0.0103014 -0.0111424 -0.0110906 -0.0120123 -0.0119579 -0.0110906 -0.0109329 -0.0119579 -0.0117918 -0.0120123 -0.0119579 -0.0129936 -0.0129365 -0.0119579 -0.0117918 -0.0129365 -0.012762 -0.0109329 -0.0106696 -0.0117918 -0.0115141 -0.0106696 -0.0103014 -0.0115141 -0.0111251 -0.0117918 -0.0115141 -0.012762 -0.0124698 -0.0115141 -0.0111251 -0.0124698 -0.0120593 -0.0089581 -0.00853644 -0.00958128 -0.00913575 -0.00853644 -0.00802614 -0.00913575 -0.00859551 -0.00958128 -0.00913575 -0.0103014 -0.00982969 -0.00913575 -0.00859551 -0.00982969 -0.00925624 -0.00802614 -0.00743079 -0.00859551 -0.00796385 -0.00743079 -0.00675497 -0.00796385 -0.00724517 -0.00859551 -0.00796385 -0.00925624 -0.00858393 -0.00796385 -0.00724517 -0.00858393 -0.0078168 -0.0103014 -0.00982969 -0.0111251 -0.0106252 -0.00982969 -0.00925624 -0.0106252 -0.0100158 -0.0111251 -0.0106252 -0.0120593 -0.0115302 -0.0106252 -0.0100158 -0.0115302 -0.0108827 -0.00925624 -0.00858393 -0.0100158 -0.00929883 -0.00858393 -0.0078168 -0.00929883 -0.00847787 -0.0100158 -0.00929883 -0.0108827 -0.0101178 -0.00929883 -0.00847787 -0.0101178 -0.00923799 -0.0129936 -0.0129365 -0.0140918 -0.0140322 -0.0129365 -0.012762 -0.0140322 -0.0138497 -0.0140918 -0.0140322 -0.015312 -0.0152502 -0.0140322 -0.0138497 -0.0152502 -0.0150608 -0.012762 -0.0124698 -0.0138497 -0.0135435 -0.0124698 -0.0120593 -0.0135435 -0.0131119 -0.0138497 -0.0135435 -0.0150608 -0.014742 -0.0135435 -0.0131119 -0.014742 -0.0142911 -0