# vtk DataFile Version 3.0
#This file was generated by the deal.II library on 2026/1/5 at 14:19:37
ASCII
DATASET UNSTRUCTURED_GRID

POINTS 4096 double
0 0 0
0.03125 0 0
0 0.03125 0
0.03125 0.03125 0
0.03125 0 0
0.0625 0 0
0.03125 0.03125 0
0.0625 0.03125 0
0 0.03125 0
0.03125 0.03125 0
0 0.0625 0
0.03125 0.0625 0
0.03125 0.03125 0
0.0625 0.03125 0
0.03125 0.0625 0
0.0625 0.0625 0
0.0625 0 0
0.09375 0 0
0.0625 0.03125 0
0.09375 0.03125 0
0.09375 0 0
0.125 0 0
0.09375 0.03125 0
0.125 0.03125 0
0.0625 0.03125 0
0.09375 0.03125 0
0.0625 0.0625 0
0.09375 0.0625 0
0.09375 0.03125 0
0.125 0.03125 0
0.09375 0.0625 0
0.125 0.0625 0
0 0.0625 0
0.03125 0.0625 0
0 0.09375 0
0.03125 0.09375 0
0.03125 0.0625 0
0.0625 0.0625 0
0.03125 0.09375 0
0.0625 0.09375 0
0 0.09375 0
0.03125 0.09375 0
0 0.125 0
0.03125 0.125 0
0.03125 0.09375 0
0.0625 0.09375 0
0.03125 0.125 0
0.0625 0.125 0
0.0625 0.0625 0
0.09375 0.0625 0
0.0625 0.09375 0
0.09375 0.09375 0
0.09375 0.0625 0
0.125 0.0625 0
0.09375 0.09375 0
0.125 0.09375 0
0.0625 0.09375 0
0.09375 0.09375 0
0.0625 0.125 0
0.09375 0.125 0
0.09375 0.09375 0
0.125 0.09375 0
0.09375 0.125 0
0.125 0.125 0
0.125 0 0
0.15625 0 0
0.125 0.03125 0
0.15625 0.03125 0
0.15625 0 0
0.1875 0 0
0.15625 0.03125 0
0.1875 0.03125 0
0.125 0.03125 0
0.15625 0.03125 0
0.125 0.0625 0
0.15625 0.0625 0
0.15625 0.03125 0
0.1875 0.03125 0
0.15625 0.0625 0
0.1875 0.0625 0
0.1875 0 0
0.21875 0 0
0.1875 0.03125 0
0.21875 0.03125 0
0.21875 0 0
0.25 0 0
0.21875 0.03125 0
0.25 0.03125 0
0.1875 0.03125 0
0.21875 0.03125 0
0.1875 0.0625 0
0.21875 0.0625 0
0.21875 0.03125 0
0.25 0.03125 0
0.21875 0.0625 0
0.25 0.0625 0
0.125 0.0625 0
0.15625 0.0625 0
0.125 0.09375 0
0.15625 0.09375 0
0.15625 0.0625 0
0.1875 0.0625 0
0.15625 0.09375 0
0.1875 0.09375 0
0.125 0.09375 0
0.15625 0.09375 0
0.125 0.125 0
0.15625 0.125 0
0.15625 0.09375 0
0.1875 0.09375 0
0.15625 0.125 0
0.1875 0.125 0
0.1875 0.0625 0
0.21875 0.0625 0
0.1875 0.09375 0
0.21875 0.09375 0
0.21875 0.0625 0
0.25 0.0625 0
0.21875 0.09375 0
0.25 0.09375 0
0.1875 0.09375 0
0.21875 0.09375 0
0.1875 0.125 0
0.21875 0.125 0
0.21875 0.09375 0
0.25 0.09375 0
0.21875 0.125 0
0.25 0.125 0
0 0.125 0
0.03125 0.125 0
0 0.15625 0
0.03125 0.15625 0
0.03125 0.125 0
0.0625 0.125 0
0.03125 0.15625 0
0.0625 0.15625 0
0 0.15625 0
0.03125 0.15625 0
0 0.1875 0
0.03125 0.1875 0
0.03125 0.15625 0
0.0625 0.15625 0
0.03125 0.1875 0
0.0625 0.1875 0
0.0625 0.125 0
0.09375 0.125 0
0.0625 0.15625 0
0.09375 0.15625 0
0.09375 0.125 0
0.125 0.125 0
0.09375 0.15625 0
0.125 0.15625 0
0.0625 0.15625 0
0.09375 0.15625 0
0.0625 0.1875 0
0.09375 0.1875 0
0.09375 0.15625 0
0.125 0.15625 0
0.09375 0.1875 0
0.125 0.1875 0
0 0.1875 0
0.03125 0.1875 0
0 0.21875 0
0.03125 0.21875 0
0.03125 0.1875 0
0.0625 0.1875 0
0.03125 0.21875 0
0.0625 0.21875 0
0 0.21875 0
0.03125 0.21875 0
0 0.25 0
0.03125 0.25 0
0.03125 0.21875 0
0.0625 0.21875 0
0.03125 0.25 0
0.0625 0.25 0
0.0625 0.1875 0
0.09375 0.1875 0
0.0625 0.21875 0
0.09375 0.21875 0
0.09375 0.1875 0
0.125 0.1875 0
0.09375 0.21875 0
0.125 0.21875 0
0.0625 0.21875 0
0.09375 0.21875 0
0.0625 0.25 0
0.09375 0.25 0
0.09375 0.21875 0
0.125 0.21875 0
0.09375 0.25 0
0.125 0.25 0
0.125 0.125 0
0.15625 0.125 0
0.125 0.15625 0
0.15625 0.15625 0
0.15625 0.125 0
0.1875 0.125 0
0.15625 0.15625 0
0.1875 0.15625 0
0.125 0.15625 0
0.15625 0.15625 0
0.125 0.1875 0
0.15625 0.1875 0
0.15625 0.15625 0
0.1875 0.15625 0
0.15625 0.1875 0
0.1875 0.1875 0
0.1875 0.125 0
0.21875 0.125 0
0.1875 0.15625 0
0.21875 0.15625 0
0.21875 0.125 0
0.25 0.125 0
0.21875 0.15625 0
0.25 0.15625 0
0.1875 0.15625 0
0.21875 0.15625 0
0.1875 0.1875 0
0.21875 0.1875 0
0.21875 0.15625 0
0.25 0.15625 0
0.21875 0.1875 0
0.25 0.1875 0
0.125 0.1875 0
0.15625 0.1875 0
0.125 0.21875 0
0.15625 0.21875 0
0.15625 0.1875 0
0.1875 0.1875 0
0.15625 0.21875 0
0.1875 0.21875 0
0.125 0.21875 0
0.15625 0.21875 0
0.125 0.25 0
0.15625 0.25 0
0.15625 0.21875 0
0.1875 0.21875 0
0.15625 0.25 0
0.1875 0.25 0
0.1875 0.1875 0
0.21875 0.1875 0
0.1875 0.21875 0
0.21875 0.21875 0
0.21875 0.1875 0
0.25 0.1875 0
0.21875 0.21875 0
0.25 0.21875 0
0.1875 0.21875 0
0.21875 0.21875 0
0.1875 0.25 0
0.21875 0.25 0
0.21875 0.21875 0
0.25 0.21875 0
0.21875 0.25 0
0.25 0.25 0
0.25 0 0
0.28125 0 0
0.25 0.03125 0
0.28125 0.03125 0
0.28125 0 0
0.3125 0 0
0.28125 0.03125 0
0.3125 0.03125 0
0.25 0.03125 0
0.28125 0.03125 0
0.25 0.0625 0
0.28125 0.0625 0
0.28125 0.03125 0
0.3125 0.03125 0
0.28125 0.0625 0
0.3125 0.0625 0
0.3125 0 0
0.34375 0 0
0.3125 0.03125 0
0.34375 0.03125 0
0.34375 0 0
0.375 0 0
0.34375 0.03125 0
0.375 0.03125 0
0.3125 0.03125 0
0.34375 0.03125 0
0.3125 0.0625 0
0.34375 0.0625 0
0.34375 0.03125 0
0.375 0.03125 0
0.34375 0.0625 0
0.375 0.0625 0
0.25 0.0625 0
0.28125 0.0625 0
0.25 0.09375 0
0.28125 0.09375 0
0.28125 0.0625 0
0.3125 0.0625 0
0.28125 0.09375 0
0.3125 0.09375 0
0.25 0.09375 0
0.28125 0.09375 0
0.25 0.125 0
0.28125 0.125 0
0.28125 0.09375 0
0.3125 0.09375 0
0.28125 0.125 0
0.3125 0.125 0
0.3125 0.0625 0
0.34375 0.0625 0
0.3125 0.09375 0
0.34375 0.09375 0
0.34375 0.0625 0
0.375 0.0625 0
0.34375 0.09375 0
0.375 0.09375 0
0.3125 0.09375 0
0.34375 0.09375 0
0.3125 0.125 0
0.34375 0.125 0
0.34375 0.09375 0
0.375 0.09375 0
0.34375 0.125 0
0.375 0.125 0
0.375 0 0
0.40625 0 0
0.375 0.03125 0
0.40625 0.03125 0
0.40625 0 0
0.4375 0 0
0.40625 0.03125 0
0.4375 0.03125 0
0.375 0.03125 0
0.40625 0.03125 0
0.375 0.0625 0
0.40625 0.0625 0
0.40625 0.03125 0
0.4375 0.03125 0
0.40625 0.0625 0
0.4375 0.0625 0
0.4375 0 0
0.46875 0 0
0.4375 0.03125 0
0.46875 0.03125 0
0.46875 0 0
0.5 0 0
0.46875 0.03125 0
0.5 0.03125 0
0.4375 0.03125 0
0.46875 0.03125 0
0.4375 0.0625 0
0.46875 0.0625 0
0.46875 0.03125 0
0.5 0.03125 0
0.46875 0.0625 0
0.5 0.0625 0
0.375 0.0625 0
0.40625 0.0625 0
0.375 0.09375 0
0.40625 0.09375 0
0.40625 0.0625 0
0.4375 0.0625 0
0.40625 0.09375 0
0.4375 0.09375 0
0.375 0.09375 0
0.40625 0.09375 0
0.375 0.125 0
0.40625 0.125 0
0.40625 0.09375 0
0.4375 0.09375 0
0.40625 0.125 0
0.4375 0.125 0
0.4375 0.0625 0
0.46875 0.0625 0
0.4375 0.09375 0
0.46875 0.09375 0
0.46875 0.0625 0
0.5 0.0625 0
0.46875 0.09375 0
0.5 0.09375 0
0.4375 0.09375 0
0.46875 0.09375 0
0.4375 0.125 0
0.46875 0.125 0
0.46875 0.09375 0
0.5 0.09375 0
0.46875 0.125 0
0.5 0.125 0
0.25 0.125 0
0.28125 0.125 0
0.25 0.15625 0
0.28125 0.15625 0
0.28125 0.125 0
0.3125 0.125 0
0.28125 0.15625 0
0.3125 0.15625 0
0.25 0.15625 0
0.28125 0.15625 0
0.25 0.1875 0
0.28125 0.1875 0
0.28125 0.15625 0
0.3125 0.15625 0
0.28125 0.1875 0
0.3125 0.1875 0
0.3125 0.125 0
0.34375 0.125 0
0.3125 0.15625 0
0.34375 0.15625 0
0.34375 0.125 0
0.375 0.125 0
0.34375 0.15625 0
0.375 0.15625 0
0.3125 0.15625 0
0.34375 0.15625 0
0.3125 0.1875 0
0.34375 0.1875 0
0.34375 0.15625 0
0.375 0.15625 0
0.34375 0.1875 0
0.375 0.1875 0
0.25 0.1875 0
0.28125 0.1875 0
0.25 0.21875 0
0.28125 0.21875 0
0.28125 0.1875 0
0.3125 0.1875 0
0.28125 0.21875 0
0.3125 0.21875 0
0.25 0.21875 0
0.28125 0.21875 0
0.25 0.25 0
0.28125 0.25 0
0.28125 0.21875 0
0.3125 0.21875 0
0.28125 0.25 0
0.3125 0.25 0
0.3125 0.1875 0
0.34375 0.1875 0
0.3125 0.21875 0
0.34375 0.21875 0
0.34375 0.1875 0
0.375 0.1875 0
0.34375 0.21875 0
0.375 0.21875 0
0.3125 0.21875 0
0.34375 0.21875 0
0.3125 0.25 0
0.34375 0.25 0
0.34375 0.21875 0
0.375 0.21875 0
0.34375 0.25 0
0.375 0.25 0
0.375 0.125 0
0.40625 0.125 0
0.375 0.15625 0
0.40625 0.15625 0
0.40625 0.125 0
0.4375 0.125 0
0.40625 0.15625 0
0.4375 0.15625 0
0.375 0.15625 0
0.40625 0.15625 0
0.375 0.1875 0
0.40625 0.1875 0
0.40625 0.15625 0
0.4375 0.15625 0
0.40625 0.1875 0
0.4375 0.1875 0
0.4375 0.125 0
0.46875 0.125 0
0.4375 0.15625 0
0.46875 0.15625 0
0.46875 0.125 0
0.5 0.125 0
0.46875 0.15625 0
0.5 0.15625 0
0.4375 0.15625 0
0.46875 0.15625 0
0.4375 0.1875 0
0.46875 0.1875 0
0.46875 0.15625 0
0.5 0.15625 0
0.46875 0.1875 0
0.5 0.1875 0
0.375 0.1875 0
0.40625 0.1875 0
0.375 0.21875 0
0.40625 0.21875 0
0.40625 0.1875 0
0.4375 0.1875 0
0.40625 0.21875 0
0.4375 0.21875 0
0.375 0.21875 0
0.40625 0.21875 0
0.375 0.25 0
0.40625 0.25 0
0.40625 0.21875 0
0.4375 0.21875 0
0.40625 0.25 0
0.4375 0.25 0
0.4375 0.1875 0
0.46875 0.1875 0
0.4375 0.21875 0
0.46875 0.21875 0
0.46875 0.1875 0
0.5 0.1875 0
0.46875 0.21875 0
0.5 0.21875 0
0.4375 0.21875 0
0.46875 0.21875 0
0.4375 0.25 0
0.46875 0.25 0
0.46875 0.21875 0
0.5 0.21875 0
0.46875 0.25 0
0.5 0.25 0
0 0.25 0
0.03125 0.25 0
0 0.28125 0
0.03125 0.28125 0
0.03125 0.25 0
0.0625 0.25 0
0.03125 0.28125 0
0.0625 0.28125 0
0 0.28125 0
0.03125 0.28125 0
0 0.3125 0
0.03125 0.3125 0
0.03125 0.28125 0
0.0625 0.28125 0
0.03125 0.3125 0
0.0625 0.3125 0
0.0625 0.25 0
0.09375 0.25 0
0.0625 0.28125 0
0.09375 0.28125 0
0.09375 0.25 0
0.125 0.25 0
0.09375 0.28125 0
0.125 0.28125 0
0.0625 0.28125 0
0.09375 0.28125 0
0.0625 0.3125 0
0.09375 0.3125 0
0.09375 0.28125 0
0.125 0.28125 0
0.09375 0.3125 0
0.125 0.3125 0
0 0.3125 0
0.03125 0.3125 0
0 0.34375 0
0.03125 0.34375 0
0.03125 0.3125 0
0.0625 0.3125 0
0.03125 0.34375 0
0.0625 0.34375 0
0 0.34375 0
0.03125 0.34375 0
0 0.375 0
0.03125 0.375 0
0.03125 0.34375 0
0.0625 0.34375 0
0.03125 0.375 0
0.0625 0.375 0
0.0625 0.3125 0
0.09375 0.3125 0
0.0625 0.34375 0
0.09375 0.34375 0
0.09375 0.3125 0
0.125 0.3125 0
0.09375 0.34375 0
0.125 0.34375 0
0.0625 0.34375 0
0.09375 0.34375 0
0.0625 0.375 0
0.09375 0.375 0
0.09375 0.34375 0
0.125 0.34375 0
0.09375 0.375 0
0.125 0.375 0
0.125 0.25 0
0.15625 0.25 0
0.125 0.28125 0
0.15625 0.28125 0
0.15625 0.25 0
0.1875 0.25 0
0.15625 0.28125 0
0.1875 0.28125 0
0.125 0.28125 0
0.15625 0.28125 0
0.125 0.3125 0
0.15625 0.3125 0
0.15625 0.28125 0
0.1875 0.28125 0
0.15625 0.3125 0
0.1875 0.3125 0
0.1875 0.25 0
0.21875 0.25 0
0.1875 0.28125 0
0.21875 0.28125 0
0.21875 0.25 0
0.25 0.25 0
0.21875 0.28125 0
0.25 0.28125 0
0.1875 0.28125 0
0.21875 0.28125 0
0.1875 0.3125 0
0.21875 0.3125 0
0.21875 0.28125 0
0.25 0.28125 0
0.21875 0.3125 0
0.25 0.3125 0
0.125 0.3125 0
0.15625 0.3125 0
0.125 0.34375 0
0.15625 0.34375 0
0.15625 0.3125 0
0.1875 0.3125 0
0.15625 0.34375 0
0.1875 0.34375 0
0.125 0.34375 0
[...]
POINT_DATA 4096
SCALARS u_x double 1
LOOKUP_TABLE default
-2.54522e-06 1.48454e-05 -4.83772e-05 -5.0692e-05 1.48454e-05 2.31668e-05 -5.0692e-05 -0.000363942 -4.83772e-05 -5.0692e-05 -0.000169229 -0.000214053 -5.0692e-05 -0.000363942 -0.000214053 -0.000943956 2.31668e-05 2.07171e-05 -0.000363942 -0.000967089 2.07171e-05 1.19748e-05 -0.000967089 -0.00181762 -0.000363942 -0.000967089 -0.000943956 -0.00211235 -0.000967089 -0.00181762 -0.00211235 -0.00366446 -0.000169229 -0.000214053 -0.000305988 -0.000372401 -0.000214053 -0.000943956 -0.000372401 -0.00151056 -0.000305988 -0.000372401 -0.000410351 -0.000503135 -0.000372401 -0.00151056 -0.000503135 -0.0019926 -0.000943956 -0.00211235 -0.00151056 -0.00319424 -0.00211235 -0.00366446 -0.00319424 -0.00534574 -0.00151056 -0.00319424 -0.0019926 -0.00412626 -0.00319424 -0.00534574 -0.00412626 -0.00679191 1.19748e-05 4.76682e-07 -0.00181762 -0.00283559 4.76682e-07 -1.18795e-05 -0.00283559 -0.0039471 -0.00181762 -0.00283559 -0.00366446 -0.00548021 -0.00283559 -0.0039471 -0.00548021 -0.00744751 -1.18795e-05 -2.41436e-05 -0.0039471 -0.00509065 -2.41436e-05 -3.58458e-05 -0.00509065 -0.00621856 -0.0039471 -0.00509065 -0.00744751 -0.0094672 -0.00509065 -0.00621856 -0.0094672 -0.0114589 -0.00366446 -0.00548021 -0.00534574 -0.00781152 -0.00548021 -0.00744751 -0.00781152 -0.0104566 -0.00534574 -0.00781152 -0.00679191 -0.00980153 -0.00781152 -0.0104566 -0.00980153 -0.0130008 -0.00744751 -0.0094672 -0.0104566 -0.0131593 -0.0094672 -0.0114589 -0.0131593 -0.0158185 -0.0104566 -0.0131593 -0.0130008 -0.0162522 -0.0131593 -0.0158185 -0.0162522 -0.0194413 -0.000410351 -0.000503135 -0.000456926 -0.000611005 -0.000503135 -0.0019926 -0.000611005 -0.00238598 -0.000456926 -0.000611005 -0.000432682 -0.000706279 -0.000611005 -0.00238598 -0.000706279 -0.00271074 -0.0019926 -0.00412626 -0.00238598 -0.00490515 -0.00412626 -0.00679191 -0.00490515 -0.0080132 -0.00238598 -0.00490515 -0.00271074 -0.00556464 -0.00490515 -0.0080132 -0.00556464 -0.00906069 -0.000432682 -0.000706279 -0.000330221 -0.000798855 -0.000706279 -0.00271074 -0.000798855 -0.00299227 -0.000330221 -0.000798855 -0.000144563 -0.000897184 -0.000798855 -0.00299227 -0.000897184 -0.00325471 -0.00271074 -0.00556464 -0.00299227 -0.00614972 -0.00556464 -0.00906069 -0.00614972 -0.0100001 -0.00299227 -0.00614972 -0.00325471 -0.00670499 -0.00614972 -0.0100001 -0.00670499 -0.0108971 -0.00679191 -0.00980153 -0.0080132 -0.0114887 -0.00980153 -0.0130008 -0.0114887 -0.0151574 -0.0080132 -0.0114887 -0.00906069 -0.0129482 -0.0114887 -0.0151574 -0.0129482 -0.0170317 -0.0130008 -0.0162522 -0.0151574 -0.0188682 -0.0162522 -0.0194413 -0.0188682 -0.0224966 -0.0151574 -0.0188682 -0.0170317 -0.0211468 -0.0188682 -0.0224966 -0.0211468 -0.0251604 -0.00906069 -0.0129482 -0.0100001 -0.0142685 -0.0129482 -0.0170317 -0.0142685 -0.0187378 -0.0100001 -0.0142685 -0.0108971 -0.0155371 -0.0142685 -0.0187378 -0.0155371 -0.0203854 -0.0170317 -0.0211468 -0.0187378 -0.02323 -0.0211468 -0.0251604 -0.02323 -0.0276035 -0.0187378 -0.02323 -0.0203854 -0.0252502 -0.02323 -0.0276035 -0.0252502 -0.0299811 -3.58458e-05 -4.67724e-05 -0.00621856 -0.00729487 -4.67724e-05 -5.68262e-05 -0.00729487 -0.00829246 -0.00621856 -0.00729487 -0.0114589 -0.0133597 -0.00729487 -0.00829246 -0.0133597 -0.0151208 -5.68262e-05 -6.59508e-05 -0.00829246 -0.00919031 -6.59508e-05 -7.40786e-05 -0.00919031 -0.00997141 -0.00829246 -0.00919031 -0.0151208 -0.0167039 -0.00919031 -0.00997141 -0.0167039 -0.0180779 -0.0114589 -0.0133597 -0.0158185 -0.0183532 -0.0133597 -0.0151208 -0.0183532 -0.0206991 -0.0158185 -0.0183532 -0.0194413 -0.0224753 -0.0183532 -0.0206991 -0.0224753 -0.0252796 -0.0151208 -0.0167039 -0.0206991 -0.0228051 -0.0167039 -0.0180779 -0.0228051 -0.0246294 -0.0206991 -0.0228051 -0.0252796 -0.0277943 -0.0228051 -0.0246294 -0.0277943 -0.0299702 -7.40786e-05 -8.11123e-05 -0.00997141 -0.0106212 -8.11123e-05 -8.69283e-05 -0.0106212 -0.0111268 -0.00997141 -0.0106212 -0.0180779 -0.0192166 -0.0106212 -0.0111268 -0.0192166 -0.0200973 -8.69283e-05 -9.13779e-05 -0.0111268 -0.0114767 -9.13779e-05 -9.42895e-05 -0.0114767 -0.0116606 -0.0111268 -0.0114767 -0.0200973 -0.0207002 -0.0114767 -0.0116606 -0.0207002 -0.0210081 -0.0180779 -0.0192166 -0.0246294 -0.0261372 -0.0192166 -0.0200973 -0.0261372 -0.0272984 -0.0246294 -0.0261372 -0.0299702 -0.0317661 -0.0261372 -0.0272984 -0.0317661 -0.0331466 -0.0200973 -0.0207002 -0.0272984 -0.0280872 -0.0207002 -0.0210081 -0.0280872 -0.0284817 -0.0272984 -0.0280872 -0.0331466 -0.0340813 -0.0280872 -0.0284817 -0.0340813 -0.0345448 -0.0194413 -0.0224753 -0.0224966 -0.0259417 -0.0224753 -0.0252796 -0.0259417 -0.0291225 -0.0224966 -0.0259417 -0.0251604 -0.0289654 -0.0259417 -0.0291225 -0.0289654 -0.0324761 -0.0252796 -0.0277943 -0.0291225 -0.0319731 -0.0277943 -0.0299702 -0.0319731 -0.0344394 -0.0291225 -0.0319731 -0.0324761 -0.0356232 -0.0319731 -0.0344394 -0.0356232 -0.0383489 -0.0251604 -0.0289654 -0.0276035 -0.031746 -0.0289654 -0.0324761 -0.031746 -0.0355683 -0.0276035 -0.031746 -0.0299811 -0.0344609 -0.031746 -0.0355683 -0.0344609 -0.0385977 -0.0324761 -0.0356232 -0.0355683 -0.0389985 -0.0356232 -0.0383489 -0.0389985 -0.0419768 -0.0355683 -0.0389985 -0.0385977 -0.0423179 -0.0389985 -0.0419768 -0.0423179 -0.0455603 -0.0299702 -0.0317661 -0.0344394 -0.0364756 -0.0317661 -0.0331466 -0.0364756 -0.0380423 -0.0344394 -0.0364756 -0.0383489 -0.0406043 -0.0364756 -0.0380423 -0.0406043 -0.0423468 -0.0331466 -0.0340813 -0.0380423 -0.0391054 -0.0340813 -0.0345448 -0.0391054 -0.0396361 -0.0380423 -0.0391054 -0.0423468 -0.0435389 -0.0391054 -0.0396361 -0.0435389 -0.044148 -0.0383489 -0.0406043 -0.0419768 -0.0444518 -0.0406043 -0.0423468 -0.0444518 -0.0463779 -0.0419768 -0.0444518 -0.0455603 -0.0482715 -0.0444518 -0.0463779 -0.0482715 -0.0504034 -0.0423468 -0.0435389 -0.0463779 -0.0477142 -0.0435389 -0.044148 -0.0477142 -0.0484239 -0.0463779 -0.0477142 -0.0504034 -0.0519113 -0.0477142 -0.0484239 -0.0519113 -0.0527532 -0.000144563 -0.000897184 0.000128636 -0.00100819 -0.000897184 -0.00325471 -0.00100819 -0.00351868 0.000128636 -0.00100819 0.000494173 -0.0011375 -0.00100819 -0.00351868 -0.0011375 -0.00380101 -0.00325471 -0.00670499 -0.00351868 -0.00726975 -0.00670499 -0.0108971 -0.00726975 -0.0118106 -0.00351868 -0.00726975 -0.00380101 -0.00787682 -0.00726975 -0.0118106 -0.00787682 -0.0127905 0.000494173 -0.0011375 0.000957931 -0.00128991 -0.0011375 -0.00380101 -0.00128991 -0.00411532 0.000957931 -0.00128991 0.00152726 -0.00146974 -0.00128991 -0.00411532 -0.00146974 -0.00447319 -0.00380101 -0.00787682 -0.00411532 -0.0085533 -0.00787682 -0.0127905 -0.0085533 -0.0138779 -0.00411532 -0.0085533 -0.00447319 -0.00932237 -0.0085533 -0.0138779 -0.00932237 -0.015108 -0.0108971 -0.0155371 -0.0118106 -0.0168324 -0.0155371 -0.0203854 -0.0168324 -0.0220716 -0.0118106 -0.0168324 -0.0127905 -0.0182206 -0.0168324 -0.0220716 -0.0182206 -0.0238783 -0.0203854 -0.0252502 -0.0220716 -0.0273226 -0.0252502 -0.0299811 -0.0273226 -0.0324258 -0.0220716 -0.0273226 -0.0238783 -0.0295432 -0.0273226 -0.0324258 -0.0295432 -0.0350466 -0.0127905 -0.0182206 -0.0138779 -0.0197567 -0.0182206 -0.0238783 -0.0197567 -0.0258726 -0.0138779 -0.0197567 -0.015108 -0.0214869 -0.0197567 -0.0258726 -0.0214869 -0.0281099 -0.0238783 -0.0295432 -0.0258726 -0.0319896 -0.0295432 -0.0350466 -0.0319896 -0.0379299 -0.0258726 -0.0319896 -0.0281099 -0.0347245 -0.0319896 -0.0379299 -0.0347245 -0.0411436 0.00152726 -0.00146974 0.00221125 -0.00168139 -0.00146974 -0.00447319 -0.00168139 -0.00488541 0.00221125 -0.00168139 0.00302099 -0.00192976 -0.00168139 -0.00488541 -0.00192976 -0.00536345 -0.00447319 -0.00932237 -0.00488541 -0.0102056 -0.00932237 -0.015108 -0.0102056 -0.0165129 -0.00488541 -0.0102056 -0.00536345 -0.0112254 -0.0102056 -0.0165129 -0.0112254 -0.0181254 0.00302099 -0.00192976 0.00396981 -0.00222085 -0.00192976 -0.00536345 -0.00222085 -0.00592099 0.00396981 -0.00222085 0.00507382 -0.00256235 -0.00222085 -0.00592099 -0.00256235 -0.00657557 -0.00536345 -0.0112254 -0.00592099 -0.012408 -0.0112254 -0.0181254 -0.012408 -0.019982 -0.00592099 -0.012408 -0.00657557 -0.0137858 -0.012408 -0.019982 -0.0137858 -0.0221267 -0.015108 -0.0214869 -0.0165129 -0.0234526 -0.0214869 -0.0281099 -0.0234526 -0.0306386 -0.0165129 -0.0234526 -0.0181254 -0.0256944 -0.0234526 -0.0306386 -0.0256944 -0.0335039 -0.0281099 -0.0347245 -0.0306386 -0.0378004 -0.0347245 -0.0411436 -0.0378004 -0.044742 -0.0306386 -0.0378004 -0.0335039 -0.0412639 -0.0378004 -0.044742 -0.0412639 -0.0487698 -0.0181254 -0.0256944 -0.019982 -0.028256 -0.0256944 -0.0335039 -0.028256 -0.036752 -0.019982 -0.028256 -0.0221267 -0.0311875 -0.028256 -0.036752 -0.0311875 -0.040433 -0.0335039 -0.0412639 -0.036752 -0.0451592 -0.0412639 -0.0487698 -0.0451592 -0.0532653 -0.036752 -0.0451592 -0.040433 -0.04953 -0.0451592 -0.0532653 -0.04953 -0.0582607 -0.0299811 -0.0344609 -0.0324258 -0.0372594 -0.0344609 -0.0385977 -0.0372594 -0.0417294 -0.0324258 -0.0372594 -0.0350466 -0.0402623 -0.0372594 -0.0417294 -0.0402623 -0.0450946 -0.0385977 -0.0423179 -0.0417294 -0.045761 -0.0423179 -0.0455603 -0.045761 -0.0492924 -0.0417294 -0.045761 -0.0450946 -0.0494691 -0.045761 -0.0492924 -0.0494691 -0.0533238 -0.0350466 -0.0402623 -0.0379299 -0.0435633 -0.0402623 -0.0450946 -0.0435633 -0.0487939 -0.0379299 -0.0435633 -0.0411436 -0.0472341 -0.0435633 -0.0487939 -0.0472341 -0.0529011 -0.0450946 -0.0494691 -0.0487939 -0.0535482 -0.0494691 -0.0533238 -0.0535482 -0.057766 -0.0487939 -0.0535482 -0.0529011 -0.0580742 -0.0535482 -0.057766 -0.0580742 -0.0626972 -0.0455603 -0.0482715 -0.0492924 -0.052269 -0.0482715 -0.0504034 -0.052269 -0.0546402 -0.0492924 -0.052269 -0.0533238 -0.0566038 -0.052269 -0.0546402 -0.0566038 -0.0592566 -0.0504034 -0.0519113 -0.0546402 -0.0563572 -0.0519113 -0.0527532 -0.0563572 -0.0573722 -0.0546402 -0.0563572 -0.0592566 -0.0612294 -0.0563572 -0.0573722 -0.0612294 -0.0624677 -0.0533238 -0.0566038 -0.057766 -0.0613934 -0.0566038 -0.0592566 -0.0613934 -0.064377 -0.057766 -0.0613934 -0.0626972 -0.0667188 -0.0613934 -0.064377 -0.0667188 -0.0700867 -0.0592566 -0.0612294 -0.064377 -0.0666603 -0.0612294 -0.0624677 -0.0666603 -0.0681821 -0.064377 -0.0666603 -0.0700867 -0.0727425 -0.0666603 -0.0681821 -0.0727425 -0.0746185 -0.0411436 -0.0472341 -0.044742 -0.0513287 -0.0472341 -0.0529011 -0.0513287 -0.0574687 -0.044742 -0.0513287 -0.0487698 -0.0558874 -0.0513287 -0.0574687 -0.0558874 -0.0625311 -0.0529011 -0.0580742 -0.0574687 -0.0630976 -0.0580742 -0.0626972 -0.0630976 -0.0681655 -0.0574687 -0.0630976 -0.0625311 -0.0686458 -0.0630976 -0.0681655 -0.0686458 -0.0741921 -0.0487698 -0.0558874 -0.0532653 -0.0609395 -0.0558874 -0.0625311 -0.0609395 -0.068106 -0.0532653 -0.0609395 -0.0582607 -0.0665012 -0.0609395 -0.068106 -0.0665012 -0.0741907 -0.0625311 -0.0686458 -0.068106 -0.0747236 -0.0686458 -0.0741921 -0.0747236 -0.0807682 -0.068106 -0.0747236 -0.0741907 -0.0813069 -0.0747236 -0.0807682 -0.0813069 -0.0878474 -0.0626972 -0.0667188 -0.0681655 -0.0726275 -0.0667188 -0.0700867 -0.0726275 -0.0764351 -0.0681655 -0.0726275 -0.0741921 -0.0791352 -0.0726275 -0.0764351 -0.0791352 -0.0834349 -0.0700867 -0.0727425 -0.0764351 -0.0795305 -0.0727425 -0.0746185 -0.0795305 -0.0818415 -0.0764351 -0.0795305 -0.0834349 -0.0870383 -0.0795305 -0.0818415 -0.0870383 -0.0898722 -0.0741921 -0.0791352 -0.0807682 -0.0862206 -0.0791352 -0.0834349 -0.0862206 -0.0910547 -0.0807682 -0.0862206 -0.0878474 -0.0938146 -0.0862206 -0.0910547 -0.0938146 -0.0992036 -0.0834349 -0.0870383 -0.0910547 -0.0952282 -0.0870383 -0.0898722 -0.0952282 -0.0986734 -0.0910547 -0.0952282 -0.0992036 -0.103991 -0.0952282 -0.0986734 -0.103991 -0.108123 -9.42895e-05 -9.54841e-05 -0.0116606 -0.0116699 -9.54841e-05 -9.47898e-05 -0.0116699 -0.0114983 -0.0116606 -0.0116699 -0.0210081 -0.0210073 -0.0116699 -0.0114983 -0.0210073 -0.0206878 -9.47898e-05 -9.20534e-05 -0.0114983 -0.0111423 -9.20534e-05 -8.71625e-05 -0.0111423 -0.0106023 -0.0114983 -0.0111423 -0.0206878 -0.0200453 -0.0111423 -0.0106023 -0.0200453 -0.0190819 -0.0210081 -0.0210073 -0.0284817 -0.0284647 -0.0210073 -0.0206878 -0.0284647 -0.0280242 -0.0284817 -0.0284647 -0.0345448 -0.0345167 -0.0284647 -0.0280242 -0.0345167 -0.0339837 -0.0206878 -0.0200453 -0.0280242 -0.0271556 -0.0200453 -0.0190819 -0.0271556 -0.025863 -0.0280242 -0.0271556 -0.0339837 -0.0329403 -0.0271556 -0.025863 -0.0329403 -0.0313917 -8.71625e-05 -8.00647e-05 -0.0106023 -0.00988346 -8.00647e-05 -7.07795e-05 -0.00988346 -0.00899712 -0.0106023 -0.00988346 -0.0190819 -0.0178083 -0.00988346 -0.00899712 -0.0178083 -0.0162457 -7.07795e-05 -5.94195e-05 -0.00899712 -0.00796221 -5.94195e-05 -4.62272e-05 -0.00796221 -0.00680688 -0.00899712 -0.00796221 -0.0162457 -0.0144283 -0.00796221 -0.00680688 -0.0144283 -0.0124056 -0.0190819 -0.0178083 -0.025863 -0.0241617 -0.0178083 -0.0162457 -0.0241617 -0.0220806 -0.025863 -0.0241617 -0.0313917 -0.0293562 -0.0241617 -0.0220806 -0.0293562 -0.0268682 -0.0162457 -0.0144283 -0.0220806 -0.0196653 -0.0144283 -0.0124056 -0.0196653 -0.016981 -0.0220806 -0.0196653 -0.0268682 -0.0239813 -0.0196653 -0.016981 -0.0239813 -0.0207718 -0.0345448 -0.0345167 -0.0396361 -0.0396111 -0.0345167 -0.0339837 -0.0396111 -0.0390145 -0.0396361 -0.0396111 -0.044148 -0.0441473 -0.0396111 -0.0390145 -0.0441473 -0.0435171 -0.0339837 -0.0329403 -0.0390145 -0.0378393 -0.0329403 -0.0313917 -0.0378393 -0.0360901 -0.0390145 -0.0378393 -0.0435171 -0.0422469 -0.0378393 -0.0360901 -0.0422469 -0.0403389 -0.044148 -0.0441473 -0.0484239 -0.0484752 -0.0441473 -0.0435171 -0.0484752 -0.0478429 -0.0484239 -0.0484752 -0.0527532 -0.052891 -0.0484752 -0.0478429 -0.052891 -0.0522919 -0.0435171 -0.0422469 -0.0478429 -0.0465111 -0.0422469 -0.0403389 -0.0465111 -0.0444767 -0.0478429 -0.0465111 -0.0522919 -0.0509317 -0.0465111 -0.0444767 -0.0509317 -0.0487993 -0.0313917 -0.0293562 -0.0360901 -0.0337862 -0.0293562 -0.0268682 -0.0337862 -0.030965 -0.0360901 -0.0337862 -0.0403389 -0.037811 -0.0337862 -0.030965 -0.037811 -0.0347016 -0.0268682 -0.0239813 -0.030965 -0.0276858 -0.0239813 -0.0207718 -0.0276858 -0.0240331 -0.030965 -0.0276858 -0.0347016 -0.0310735 -0.0276858 -0.0240331 -0.0310735 -0.0270181 -0.0403389 -0.037811 -0.0444767 -0.041754 -0.037811 -0.0347016 -0.041754 -0.03838 -0.0444767 -0.041754 -0.0487993 -0.0459021 -0.041754 -0.03838 -0.0459021 -0.0422727 -0.0347016 -0.0310735 -0.03838 -0.0344193 -0.0310735 -0.0270181 -0.0344193 -0.0299695 -0.03838 -0.0344193 -0.0422727 -0.037976 -0.0344193 -0.0299695 -0.037976 -0.0331154 -4.62272e-05 -3.16011e-05 -0.00680688 -0.00557018 -3.16011e-05 -1.62337e-05 -0.00557018 -0.0043031 -0.00680688 -0.00557018 -0.0124056 -0.0102451 -0.00557018 -0.0043031 -0.0102451 -0.00803292 -1.62337e-05 -8.06596e-07 -0.0043031 -0.00307175 -8.06596e-07 1.19177e-05 -0.00307175 -0.00194387 -0.0043031 -0.00307175 -0.00803292 -0.00587686 -0.00307175 -0.00194387 -0.00587686 -0.00388895 -0.0124056 -0.0102451 -0.016981 -0.0141147 -0.0102451 -0.00803292 -0.0141147 -0.0111762 -0.016981 -0.0141147 -0.0207718 -0.0173407 -0.0141147 -0.0111762 -0.0173407 -0.0138146 -0.00803292 -0.00587686 -0.0111762 -0.00829932 -0.00587686 -0.00388895 -0.00829932 -0.00562416 -0.0111762 -0.00829932 -0.0138146 -0.0103461 -0.00829932 -0.00562416 -0.0103461 -0.00709641 1.19177e-05 2.15186e-05 -0.00194387 -0.00105282 2.15186e-05 5.32903e-05 -0.00105282 -0.000196373 -0.00194387 -0.00105282 -0.00388895 -0.00225442 -0.00105282 -0.000196373 -0.00225442 -0.000779631 5.32903e-05 -9.97025e-06 -0.000196373 -0.000892813 -9.97025e-06 0.0073518 -0.000892813 0.00653388 -0.000196373 -0.000892813 -0.000779631 -0.00110294 -0.000892813 0.00653388 -0.00110294 0.00678407 -0.00388895 -0.00225442 -0.00562416 -0.00336352 -0.00225442 -0.000779631 -0.00336352 -0.00135393 -0.00562416 -0.00336352 -0.00709641 -0.00430121 -0.00336352 -0.00135393 -0.00430121 -0.00183386 -0.000779631 -0.00110294 -0.00135393 -0.00128067 -0.00110294 0.00678407 -0.00128067 0.00661322 -0.00135393 -0.00128067 -0.00183386 -0.00140623 -0.00128067 0.00661322 -0.00140623 0.00648417 -0.0207718 -0.0173407 -0.0240331 -0.0201192 -0.0173407 -0.0138146 -0.0201192 -0.0160847 -0.0240331 -0.0201192 -0.0270181 -0.0226583 -0.0201192 -0.0160847 -0.0226583 -0.0181491 -0.0138146 -0.0103461 -0.0160847 -0.0120994 -0.0103461 -0.00709641 -0.0120994 -0.00834475 -0.0160847 -0.0120994 -0.0181491 -0.013679 -0.0120994 -0.00834475 -0.013679 -0.00945266 -0.0270181 -0.0226583 -0.0299695 -0.0251649 -0.0226583 -0.0181491 -0.0251649 -0.0201773 -0.0299695 -0.0251649 -0.0331154 -0.0278379 -0.0251649 -0.0201773 -0.0278379 -0.0223355 -0.0181491 -0.013679 -0.0201773 -0.0152175 -0.013679 -0.00945266 -0.0152175 -0.0105175 -0.0201773 -0.0152175 -0.0223355 -0.0168466 -0.0152175 -0.0105175 -0.0168466 -0.0116366 -0.00709641 -0.00430121 -0.00834475 -0.00508144 -0.00430121 -0.00183386 -0.00508144 -0.00221926 -0.00834475 -0.00508144 -0.00945266 -0.00575906 -0.00508144 -0.00221926 -0.00575906 -0.00254289 -0.00183386 -0.00140623 -0.00221926 -0.00150359 -0.00140623 0.00648417 -0.00150359 0.00641115 -0.00221926 -0.00150359 -0.00254289 -0.0015885 -0.00150359 0.00641115 -0.0015885 0.00639266 -0.00945266 -0.00575906 -0.0105175 -0.00639926 -0.00575906 -0.00254289 -0.00639926 -0.00284038 -0.0105175 -0.00639926 -0.0116366 -0.00706581 -0.00639926 -0.00284038 -0.00706581 -0.00314504 -0.00254289 -0.0015885 -0.00284038 -0.00167221 -0.0015885 0.00639266 -0.00167221 0.00643183 -0.00284038 -0.00167221 -0.00314504 -0.00176486 -0.00167221 0.00643183 -0.00176486 0.00652732 -0.0527532 -0.052891 -0.0573722 -0.0576389 -0.052891 -0.0522919 -0.0576389 -0.0571146 -0.0573722 -0.0576389 -0.0624677 -0.0629155 -0.0576389 -0.0571146 -0.0629155 -0.0625175 -0.0522919 -0.0509317 -0.0571146 -0.0557637 -0.0509317 -0.0487993 -0.0557637 -0.053563 -0.0571146 -0.0557637 -0.0625175 -0.0612229 -0.0557637 -0.053563 -0.0612229 -0.0589917 -0.0624677 -0.0629155 -0.0681821 -0.0688754 -0.0629155 -0.0625175 -0.0688754 -0.0686695 -0.0681821 -0.0688754 -0.0746185 -0.0756362 -0.0688754 -0.0686695 -0.0756362 -0.0757068 -0.0625175 -0.0612229 -0.0686695 -0.0674939 -0.0612229 -0.0589917 -0.0674939 -0.0652862 -0.0686695 -0.0674939 -0.0757068 -0.0747358 -0.0674939 -0.0652862 -0.0747358 -0.0726309 -0.0487993 -0.0459021 -0.053563 -0.0505091 -0.0459021 -0.0422727 -0.0505091 -0.0466267 -0.053563 -0.0505091 -0.0589917 -0.0558044 -0.0505091 -0.0466267 -0.0558044 -0.0516723 -0.0422727 -0.037976 -0.0466267 -0.0419782 -0.037976 -0.0331154 -0.0419782 -0.0366718 -0.0466267 -0.0419782 -0.0516723 -0.0466511 -0.0419782 -0.0366718 -0.0466511 -0.0408518 -0.0589917 -0.0558044 -0.0652862 -0.0620032 -0.0558044 -0.0516723 -0.0620032 -0.0576356 -0.0652862 -0.0620032 -0.0726309 -0.0693162 -0.0620032 -0.0576356 -0.0693162 -0.0647504 -0.0516723 -0.0466511 -0.0576356 -0.0522251 -0.0466511 -0.0408518 -0.0522251 -0.0458809 -0.0576356 -0.0522251 -0.0647504 -0.0589502 -0.0522251 -0.0458809 -0.0589502 -0.0520143 -0.0746185 -0.0756362 -0.0818415 -0.0832784 -0.0756362 -0.0757068 -0.0832784 -0.083733 -0.0818415 -0.0832784 -0.0898722 -0.0918382 -0.0832784 -0.083733 -0.0918382 -0.0928092 -0.0757068 -0.0747358 -0.083733 -0.0830821 -0.0747358 -0.0726309 -0.0830821 -0.0811958 -0.083733 -0.0830821 -0.0928092 -0.0926298 -0.0830821 -0.0811958 -0.0926298 -0.0911242 -0.0898722 -0.0918382 -0.0986734 -0.101288 -0.0918382 -0.0928092 -0.101288 -0.10293 -0.0986734 -0.101288 -0.108123 -0.111502 -0.101288 -0.10293 -0.111502 -0.113978 -0.0928092 -0.0926298 -0.10293 -0.10341 -0.0926298 -0.0911242 -0.10341 -0.102501 -0.10293 -0.10341 -0.113978 -0.115333 -0.10341 -0.102501 -0.115333 -0.115286 -0.0726309 -0.0693162 -0.0811958 -0.0779531 -0.0693162 -0.0647504 -0.0779531 -0.0732656 -0.0811958 -0.0779531 -0.0911242 -0.0881125 -0.0779531 -0.0732656 -0.0881125 -0.083439 -0.0647504 -0.0589502 -0.0732656 -0.0671082 -0.0589502 -0.0520143 -0.0671082 -0.0595536 -0.0732656 -0.0671082 -0.083439 -0.0770123 -0.0671082 -0.0595536 -0.0770123 -0.0688537 -0.0911242 -0.0881125 -0.102501 -0.0999481 -0.0881125 -0.083439 -0.0999481 -0.0955051 -0.102501 -0.0999481 -0.115286 -0.113497 -0.0999481 -0.0955051 -0.113497 -0.