# vtk DataFile Version 3.0
#This file was generated by the deal.II library on 2026/1/5 at 14:19:38
ASCII
DATASET UNSTRUCTURED_GRID

POINTS 4096 double
0 0 0
0.03125 0 0
0 0.03125 0
0.03125 0.03125 0
0.03125 0 0
0.0625 0 0
0.03125 0.03125 0
0.0625 0.03125 0
0 0.03125 0
0.03125 0.03125 0
0 0.0625 0
0.03125 0.0625 0
0.03125 0.03125 0
0.0625 0.03125 0
0.03125 0.0625 0
0.0625 0.0625 0
0.0625 0 0
0.09375 0 0
0.0625 0.03125 0
0.09375 0.03125 0
0.09375 0 0
0.125 0 0
0.09375 0.03125 0
0.125 0.03125 0
0.0625 0.03125 0
0.09375 0.03125 0
0.0625 0.0625 0
0.09375 0.0625 0
0.09375 0.03125 0
0.125 0.03125 0
0.09375 0.0625 0
0.125 0.0625 0
0 0.0625 0
0.03125 0.0625 0
0 0.09375 0
0.03125 0.09375 0
0.03125 0.0625 0
0.0625 0.0625 0
0.03125 0.09375 0
0.0625 0.09375 0
0 0.09375 0
0.03125 0.09375 0
0 0.125 0
0.03125 0.125 0
0.03125 0.09375 0
0.0625 0.09375 0
0.03125 0.125 0
0.0625 0.125 0
0.0625 0.0625 0
0.09375 0.0625 0
0.0625 0.09375 0
0.09375 0.09375 0
0.09375 0.0625 0
0.125 0.0625 0
0.09375 0.09375 0
0.125 0.09375 0
0.0625 0.09375 0
0.09375 0.09375 0
0.0625 0.125 0
0.09375 0.125 0
0.09375 0.09375 0
0.125 0.09375 0
0.09375 0.125 0
0.125 0.125 0
0.125 0 0
0.15625 0 0
0.125 0.03125 0
0.15625 0.03125 0
0.15625 0 0
0.1875 0 0
0.15625 0.03125 0
0.1875 0.03125 0
0.125 0.03125 0
0.15625 0.03125 0
0.125 0.0625 0
0.15625 0.0625 0
0.15625 0.03125 0
0.1875 0.03125 0
0.15625 0.0625 0
0.1875 0.0625 0
0.1875 0 0
0.21875 0 0
0.1875 0.03125 0
0.21875 0.03125 0
0.21875 0 0
0.25 0 0
0.21875 0.03125 0
0.25 0.03125 0
0.1875 0.03125 0
0.21875 0.03125 0
0.1875 0.0625 0
0.21875 0.0625 0
0.21875 0.03125 0
0.25 0.03125 0
0.21875 0.0625 0
0.25 0.0625 0
0.125 0.0625 0
0.15625 0.0625 0
0.125 0.09375 0
0.15625 0.09375 0
0.15625 0.0625 0
0.1875 0.0625 0
0.15625 0.09375 0
0.1875 0.09375 0
0.125 0.09375 0
0.15625 0.09375 0
0.125 0.125 0
0.15625 0.125 0
0.15625 0.09375 0
0.1875 0.09375 0
0.15625 0.125 0
0.1875 0.125 0
0.1875 0.0625 0
0.21875 0.0625 0
0.1875 0.09375 0
0.21875 0.09375 0
0.21875 0.0625 0
0.25 0.0625 0
0.21875 0.09375 0
0.25 0.09375 0
0.1875 0.09375 0
0.21875 0.09375 0
0.1875 0.125 0
0.21875 0.125 0
0.21875 0.09375 0
0.25 0.09375 0
0.21875 0.125 0
0.25 0.125 0
0 0.125 0
0.03125 0.125 0
0 0.15625 0
0.03125 0.15625 0
0.03125 0.125 0
0.0625 0.125 0
0.03125 0.15625 0
0.0625 0.15625 0
0 0.15625 0
0.03125 0.15625 0
0 0.1875 0
0.03125 0.1875 0
0.03125 0.15625 0
0.0625 0.15625 0
0.03125 0.1875 0
0.0625 0.1875 0
0.0625 0.125 0
0.09375 0.125 0
0.0625 0.15625 0
0.09375 0.15625 0
0.09375 0.125 0
0.125 0.125 0
0.09375 0.15625 0
0.125 0.15625 0
0.0625 0.15625 0
0.09375 0.15625 0
0.0625 0.1875 0
0.09375 0.1875 0
0.09375 0.15625 0
0.125 0.15625 0
0.09375 0.1875 0
0.125 0.1875 0
0 0.1875 0
0.03125 0.1875 0
0 0.21875 0
0.03125 0.21875 0
0.03125 0.1875 0
0.0625 0.1875 0
0.03125 0.21875 0
0.0625 0.21875 0
0 0.21875 0
0.03125 0.21875 0
0 0.25 0
0.03125 0.25 0
0.03125 0.21875 0
0.0625 0.21875 0
0.03125 0.25 0
0.0625 0.25 0
0.0625 0.1875 0
0.09375 0.1875 0
0.0625 0.21875 0
0.09375 0.21875 0
0.09375 0.1875 0
0.125 0.1875 0
0.09375 0.21875 0
0.125 0.21875 0
0.0625 0.21875 0
0.09375 0.21875 0
0.0625 0.25 0
0.09375 0.25 0
0.09375 0.21875 0
0.125 0.21875 0
0.09375 0.25 0
0.125 0.25 0
0.125 0.125 0
0.15625 0.125 0
0.125 0.15625 0
0.15625 0.15625 0
0.15625 0.125 0
0.1875 0.125 0
0.15625 0.15625 0
0.1875 0.15625 0
0.125 0.15625 0
0.15625 0.15625 0
0.125 0.1875 0
0.15625 0.1875 0
0.15625 0.15625 0
0.1875 0.15625 0
0.15625 0.1875 0
0.1875 0.1875 0
0.1875 0.125 0
0.21875 0.125 0
0.1875 0.15625 0
0.21875 0.15625 0
0.21875 0.125 0
0.25 0.125 0
0.21875 0.15625 0
0.25 0.15625 0
0.1875 0.15625 0
0.21875 0.15625 0
0.1875 0.1875 0
0.21875 0.1875 0
0.21875 0.15625 0
0.25 0.15625 0
0.21875 0.1875 0
0.25 0.1875 0
0.125 0.1875 0
0.15625 0.1875 0
0.125 0.21875 0
0.15625 0.21875 0
0.15625 0.1875 0
0.1875 0.1875 0
0.15625 0.21875 0
0.1875 0.21875 0
0.125 0.21875 0
0.15625 0.21875 0
0.125 0.25 0
0.15625 0.25 0
0.15625 0.21875 0
0.1875 0.21875 0
0.15625 0.25 0
0.1875 0.25 0
0.1875 0.1875 0
0.21875 0.1875 0
0.1875 0.21875 0
0.21875 0.21875 0
0.21875 0.1875 0
0.25 0.1875 0
0.21875 0.21875 0
0.25 0.21875 0
0.1875 0.21875 0
0.21875 0.21875 0
0.1875 0.25 0
0.21875 0.25 0
0.21875 0.21875 0
0.25 0.21875 0
0.21875 0.25 0
0.25 0.25 0
0.25 0 0
0.28125 0 0
0.25 0.03125 0
0.28125 0.03125 0
0.28125 0 0
0.3125 0 0
0.28125 0.03125 0
0.3125 0.03125 0
0.25 0.03125 0
0.28125 0.03125 0
0.25 0.0625 0
0.28125 0.0625 0
0.28125 0.03125 0
0.3125 0.03125 0
0.28125 0.0625 0
0.3125 0.0625 0
0.3125 0 0
0.34375 0 0
0.3125 0.03125 0
0.34375 0.03125 0
0.34375 0 0
0.375 0 0
0.34375 0.03125 0
0.375 0.03125 0
0.3125 0.03125 0
0.34375 0.03125 0
0.3125 0.0625 0
0.34375 0.0625 0
0.34375 0.03125 0
0.375 0.03125 0
0.34375 0.0625 0
0.375 0.0625 0
0.25 0.0625 0
0.28125 0.0625 0
0.25 0.09375 0
0.28125 0.09375 0
0.28125 0.0625 0
0.3125 0.0625 0
0.28125 0.09375 0
0.3125 0.09375 0
0.25 0.09375 0
0.28125 0.09375 0
0.25 0.125 0
0.28125 0.125 0
0.28125 0.09375 0
0.3125 0.09375 0
0.28125 0.125 0
0.3125 0.125 0
0.3125 0.0625 0
0.34375 0.0625 0
0.3125 0.09375 0
0.34375 0.09375 0
0.34375 0.0625 0
0.375 0.0625 0
0.34375 0.09375 0
0.375 0.09375 0
0.3125 0.09375 0
0.34375 0.09375 0
0.3125 0.125 0
0.34375 0.125 0
0.34375 0.09375 0
0.375 0.09375 0
0.34375 0.125 0
0.375 0.125 0
0.375 0 0
0.40625 0 0
0.375 0.03125 0
0.40625 0.03125 0
0.40625 0 0
0.4375 0 0
0.40625 0.03125 0
0.4375 0.03125 0
0.375 0.03125 0
0.40625 0.03125 0
0.375 0.0625 0
0.40625 0.0625 0
0.40625 0.03125 0
0.4375 0.03125 0
0.40625 0.0625 0
0.4375 0.0625 0
0.4375 0 0
0.46875 0 0
0.4375 0.03125 0
0.46875 0.03125 0
0.46875 0 0
0.5 0 0
0.46875 0.03125 0
0.5 0.03125 0
0.4375 0.03125 0
0.46875 0.03125 0
0.4375 0.0625 0
0.46875 0.0625 0
0.46875 0.03125 0
0.5 0.03125 0
0.46875 0.0625 0
0.5 0.0625 0
0.375 0.0625 0
0.40625 0.0625 0
0.375 0.09375 0
0.40625 0.09375 0
0.40625 0.0625 0
0.4375 0.0625 0
0.40625 0.09375 0
0.4375 0.09375 0
0.375 0.09375 0
0.40625 0.09375 0
0.375 0.125 0
0.40625 0.125 0
0.40625 0.09375 0
0.4375 0.09375 0
0.40625 0.125 0
0.4375 0.125 0
0.4375 0.0625 0
0.46875 0.0625 0
0.4375 0.09375 0
0.46875 0.09375 0
0.46875 0.0625 0
0.5 0.0625 0
0.46875 0.09375 0
0.5 0.09375 0
0.4375 0.09375 0
0.46875 0.09375 0
0.4375 0.125 0
0.46875 0.125 0
0.46875 0.09375 0
0.5 0.09375 0
0.46875 0.125 0
0.5 0.125 0
0.25 0.125 0
0.28125 0.125 0
0.25 0.15625 0
0.28125 0.15625 0
0.28125 0.125 0
0.3125 0.125 0
0.28125 0.15625 0
0.3125 0.15625 0
0.25 0.15625 0
0.28125 0.15625 0
0.25 0.1875 0
0.28125 0.1875 0
0.28125 0.15625 0
0.3125 0.15625 0
0.28125 0.1875 0
0.3125 0.1875 0
0.3125 0.125 0
0.34375 0.125 0
0.3125 0.15625 0
0.34375 0.15625 0
0.34375 0.125 0
0.375 0.125 0
0.34375 0.15625 0
0.375 0.15625 0
0.3125 0.15625 0
0.34375 0.15625 0
0.3125 0.1875 0
0.34375 0.1875 0
0.34375 0.15625 0
0.375 0.15625 0
0.34375 0.1875 0
0.375 0.1875 0
0.25 0.1875 0
0.28125 0.1875 0
0.25 0.21875 0
0.28125 0.21875 0
0.28125 0.1875 0
0.3125 0.1875 0
0.28125 0.21875 0
0.3125 0.21875 0
0.25 0.21875 0
0.28125 0.21875 0
0.25 0.25 0
0.28125 0.25 0
0.28125 0.21875 0
0.3125 0.21875 0
0.28125 0.25 0
0.3125 0.25 0
0.3125 0.1875 0
0.34375 0.1875 0
0.3125 0.21875 0
0.34375 0.21875 0
0.34375 0.1875 0
0.375 0.1875 0
0.34375 0.21875 0
0.375 0.21875 0
0.3125 0.21875 0
0.34375 0.21875 0
0.3125 0.25 0
0.34375 0.25 0
0.34375 0.21875 0
0.375 0.21875 0
0.34375 0.25 0
0.375 0.25 0
0.375 0.125 0
0.40625 0.125 0
0.375 0.15625 0
0.40625 0.15625 0
0.40625 0.125 0
0.4375 0.125 0
0.40625 0.15625 0
0.4375 0.15625 0
0.375 0.15625 0
0.40625 0.15625 0
0.375 0.1875 0
0.40625 0.1875 0
0.40625 0.15625 0
0.4375 0.15625 0
0.40625 0.1875 0
0.4375 0.1875 0
0.4375 0.125 0
0.46875 0.125 0
0.4375 0.15625 0
0.46875 0.15625 0
0.46875 0.125 0
0.5 0.125 0
0.46875 0.15625 0
0.5 0.15625 0
0.4375 0.15625 0
0.46875 0.15625 0
0.4375 0.1875 0
0.46875 0.1875 0
0.46875 0.15625 0
0.5 0.15625 0
0.46875 0.1875 0
0.5 0.1875 0
0.375 0.1875 0
0.40625 0.1875 0
0.375 0.21875 0
0.40625 0.21875 0
0.40625 0.1875 0
0.4375 0.1875 0
0.40625 0.21875 0
0.4375 0.21875 0
0.375 0.21875 0
0.40625 0.21875 0
0.375 0.25 0
0.40625 0.25 0
0.40625 0.21875 0
0.4375 0.21875 0
0.40625 0.25 0
0.4375 0.25 0
0.4375 0.1875 0
0.46875 0.1875 0
0.4375 0.21875 0
0.46875 0.21875 0
0.46875 0.1875 0
0.5 0.1875 0
0.46875 0.21875 0
0.5 0.21875 0
0.4375 0.21875 0
0.46875 0.21875 0
0.4375 0.25 0
0.46875 0.25 0
0.46875 0.21875 0
0.5 0.21875 0
0.46875 0.25 0
0.5 0.25 0
0 0.25 0
0.03125 0.25 0
0 0.28125 0
0.03125 0.28125 0
0.03125 0.25 0
0.0625 0.25 0
0.03125 0.28125 0
0.0625 0.28125 0
0 0.28125 0
0.03125 0.28125 0
0 0.3125 0
0.03125 0.3125 0
0.03125 0.28125 0
0.0625 0.28125 0
0.03125 0.3125 0
0.0625 0.3125 0
0.0625 0.25 0
0.09375 0.25 0
0.0625 0.28125 0
0.09375 0.28125 0
0.09375 0.25 0
0.125 0.25 0
0.09375 0.28125 0
0.125 0.28125 0
0.0625 0.28125 0
0.09375 0.28125 0
0.0625 0.3125 0
0.09375 0.3125 0
0.09375 0.28125 0
0.125 0.28125 0
0.09375 0.3125 0
0.125 0.3125 0
0 0.3125 0
0.03125 0.3125 0
0 0.34375 0
0.03125 0.34375 0
0.03125 0.3125 0
0.0625 0.3125 0
0.03125 0.34375 0
0.0625 0.34375 0
0 0.34375 0
0.03125 0.34375 0
0 0.375 0
0.03125 0.375 0
0.03125 0.34375 0
0.0625 0.34375 0
0.03125 0.375 0
0.0625 0.375 0
0.0625 0.3125 0
0.09375 0.3125 0
0.0625 0.34375 0
0.09375 0.34375 0
0.09375 0.3125 0
0.125 0.3125 0
0.09375 0.34375 0
0.125 0.34375 0
0.0625 0.34375 0
0.09375 0.34375 0
0.0625 0.375 0
0.09375 0.375 0
0.09375 0.34375 0
0.125 0.34375 0
0.09375 0.375 0
0.125 0.375 0
0.125 0.25 0
0.15625 0.25 0
0.125 0.28125 0
0.15625 0.28125 0
0.15625 0.25 0
0.1875 0.25 0
0.15625 0.28125 0
0.1875 0.28125 0
0.125 0.28125 0
0.15625 0.28125 0
0.125 0.3125 0
0.15625 0.3125 0
0.15625 0.28125 0
0.1875 0.28125 0
0.15625 0.3125 0
0.1875 0.3125 0
0.1875 0.25 0
0.21875 0.25 0
0.1875 0.28125 0
0.21875 0.28125 0
0.21875 0.25 0
0.25 0.25 0
0.21875 0.28125 0
0.25 0.28125 0
0.1875 0.28125 0
0.21875 0.28125 0
0.1875 0.3125 0
0.21875 0.3125 0
0.21875 0.28125 0
0.25 0.28125 0
0.21875 0.3125 0
0.25 0.3125 0
0.125 0.3125 0
0.15625 0.3125 0
0.125 0.34375 0
0.15625 0.34375 0
0.15625 0.3125 0
0.1875 0.3125 0
0.15625 0.34375 0
0.1875 0.34375 0
0.125 0.34375 0
[...]
POINT_DATA 4096
SCALARS u_x double 1
LOOKUP_TABLE default
3.01887e-05 1.5286e-05 -5.65508e-06 -3.9685e-05 1.5286e-05 2.3478e-05 -3.9685e-05 -0.000347716 -5.65508e-06 -3.9685e-05 -0.000127295 -0.000200784 -3.9685e-05 -0.000347716 -0.000200784 -0.000923327 2.3478e-05 2.17069e-05 -0.000347716 -0.000940101 2.17069e-05 1.34733e-05 -0.000940101 -0.00178449 -0.000347716 -0.000940101 -0.000923327 -0.00208158 -0.000940101 -0.00178449 -0.00208158 -0.00363236 -0.000127295 -0.000200784 -0.000267068 -0.000359858 -0.000200784 -0.000923327 -0.000359858 -0.00149636 -0.000267068 -0.000359858 -0.000377139 -0.000493395 -0.000359858 -0.00149636 -0.000493395 -0.00199237 -0.000923327 -0.00208158 -0.00149636 -0.00317873 -0.00208158 -0.00363236 -0.00317873 -0.00534214 -0.00149636 -0.00317873 -0.00199237 -0.00413941 -0.00317873 -0.00534214 -0.00413941 -0.00683613 1.34733e-05 2.28332e-06 -0.00178449 -0.00280366 2.28332e-06 -9.9033e-06 -0.00280366 -0.00392432 -0.00178449 -0.00280366 -0.00363236 -0.00545931 -0.00280366 -0.00392432 -0.00545931 -0.00745112 -9.9033e-06 -2.2105e-05 -0.00392432 -0.00508431 -2.2105e-05 -3.38232e-05 -0.00508431 -0.00623451 -0.00392432 -0.00508431 -0.00745112 -0.00950746 -0.00508431 -0.00623451 -0.00950746 -0.0115455 -0.00363236 -0.00545931 -0.00534214 -0.00783645 -0.00545931 -0.00745112 -0.00783645 -0.0105271 -0.00534214 -0.00783645 -0.00683613 -0.00989689 -0.00783645 -0.0105271 -0.00989689 -0.013167 -0.00745112 -0.00950746 -0.0105271 -0.0132906 -0.00950746 -0.0115455 -0.0132906 -0.0160226 -0.0105271 -0.0132906 -0.013167 -0.0165065 -0.0132906 -0.0160226 -0.0165065 -0.0197968 -0.000377139 -0.000493395 -0.000431883 -0.000605028 -0.000493395 -0.00199237 -0.000605028 -0.00240384 -0.000431883 -0.000605028 -0.000417427 -0.000704229 -0.000605028 -0.00240384 -0.000704229 -0.00274798 -0.00199237 -0.00413941 -0.00240384 -0.00495447 -0.00413941 -0.00683613 -0.00495447 -0.00811621 -0.00240384 -0.00495447 -0.00274798 -0.00565259 -0.00495447 -0.00811621 -0.00565259 -0.00922613 -0.000417427 -0.000704229 -0.00032558 -0.000800375 -0.000704229 -0.00274798 -0.000800375 -0.00304812 -0.00032558 -0.000800375 -0.000150728 -0.000901629 -0.000800375 -0.00304812 -0.000901629 -0.00332713 -0.00274798 -0.00565259 -0.00304812 -0.00627492 -0.00565259 -0.00922613 -0.00627492 -0.0102259 -0.00304812 -0.00627492 -0.00332713 -0.00686363 -0.00627492 -0.0102259 -0.00686363 -0.0111776 -0.00683613 -0.00989689 -0.00811621 -0.0116685 -0.00989689 -0.013167 -0.0116685 -0.0154358 -0.00811621 -0.0116685 -0.00922613 -0.0132169 -0.0116685 -0.0154358 -0.0132169 -0.0174273 -0.013167 -0.0165065 -0.0154358 -0.0192636 -0.0165065 -0.0197968 -0.0192636 -0.0230224 -0.0154358 -0.0192636 -0.0174273 -0.0216887 -0.0192636 -0.0230224 -0.0216887 -0.0258619 -0.00922613 -0.0132169 -0.0102259 -0.0146234 -0.0132169 -0.0174273 -0.0146234 -0.0192471 -0.0102259 -0.0146234 -0.0111776 -0.0159707 -0.0146234 -0.0192471 -0.0159707 -0.0209991 -0.0174273 -0.0216887 -0.0192471 -0.0239139 -0.0216887 -0.0258619 -0.0239139 -0.0284756 -0.0192471 -0.0239139 -0.0209991 -0.0260652 -0.0239139 -0.0284756 -0.0260652 -0.0310115 -3.38232e-05 -4.48177e-05 -0.00623451 -0.00733714 -4.48177e-05 -5.49709e-05 -0.00733714 -0.00836321 -0.00623451 -0.00733714 -0.0115455 -0.0134992 -0.00733714 -0.00836321 -0.0134992 -0.0153164 -5.49709e-05 -6.42088e-05 -0.00836321 -0.00928996 -6.42088e-05 -7.2458e-05 -0.00928996 -0.0100988 -0.00836321 -0.00928996 -0.0153164 -0.0169556 -0.00928996 -0.0100988 -0.0169556 -0.0183828 -0.0115455 -0.0134992 -0.0160226 -0.0186378 -0.0134992 -0.0153164 -0.0186378 -0.0210674 -0.0160226 -0.0186378 -0.0197968 -0.0229397 -0.0186378 -0.0210674 -0.0229397 -0.0258556 -0.0153164 -0.0169556 -0.0210674 -0.0232561 -0.0169556 -0.0183828 -0.0232561 -0.0251581 -0.0210674 -0.0232561 -0.0258556 -0.0284793 -0.0232561 -0.0251581 -0.0284793 -0.0307567 -7.2458e-05 -7.9623e-05 -0.0100988 -0.0107736 -7.9623e-05 -8.5572e-05 -0.0107736 -0.0113002 -0.0100988 -0.0107736 -0.0183828 -0.0195692 -0.0107736 -0.0113002 -0.0195692 -0.0204895 -8.5572e-05 -9.0138e-05 -0.0113002 -0.0116659 -9.0138e-05 -9.31373e-05 -0.0116659 -0.0118591 -0.0113002 -0.0116659 -0.0204895 -0.0211217 -0.0116659 -0.0118591 -0.0211217 -0.0214465 -0.0183828 -0.0195692 -0.0251581 -0.0267348 -0.0195692 -0.0204895 -0.0267348 -0.0279527 -0.0251581 -0.0267348 -0.0307567 -0.0326421 -0.0267348 -0.0279527 -0.0326421 -0.0340959 -0.0204895 -0.0211217 -0.0279527 -0.028783 -0.0211217 -0.0214465 -0.028783 -0.029201 -0.0279527 -0.028783 -0.0340959 -0.035084 -0.028783 -0.029201 -0.035084 -0.0355775 -0.0197968 -0.0229397 -0.0230224 -0.0266055 -0.0229397 -0.0258556 -0.0266055 -0.0299257 -0.0230224 -0.0266055 -0.0258619 -0.0298336 -0.0266055 -0.0299257 -0.0298336 -0.0335115 -0.0258556 -0.0284793 -0.0299257 -0.0329114 -0.0284793 -0.0307567 -0.0329114 -0.0355029 -0.0299257 -0.0329114 -0.0335115 -0.0368197 -0.0329114 -0.0355029 -0.0368197 -0.0396947 -0.0258619 -0.0298336 -0.0284756 -0.0328129 -0.0298336 -0.0335115 -0.0328129 -0.0368298 -0.0284756 -0.0328129 -0.0310115 -0.0357136 -0.0328129 -0.0368298 -0.0357136 -0.0400723 -0.0335115 -0.0368197 -0.0368298 -0.0404475 -0.0368197 -0.0396947 -0.0404475 -0.0435999 -0.0368298 -0.0404475 -0.0400723 -0.044007 -0.0404475 -0.0435999 -0.044007 -0.0474498 -0.0307567 -0.0326421 -0.0355029 -0.0376492 -0.0326421 -0.0340959 -0.0376492 -0.0393061 -0.0355029 -0.0376492 -0.0396947 -0.0420816 -0.0376492 -0.0393061 -0.0420816 -0.0439326 -0.0340959 -0.035084 -0.0393061 -0.0404352 -0.035084 -0.0355775 -0.0404352 -0.0410036 -0.0393061 -0.0404352 -0.0439326 -0.045205 -0.0404352 -0.0410036 -0.045205 -0.0458618 -0.0396947 -0.0420816 -0.0435999 -0.0462293 -0.0420816 -0.0439326 -0.0462293 -0.0482844 -0.0435999 -0.0462293 -0.0474498 -0.0503411 -0.0462293 -0.0482844 -0.0503411 -0.052626 -0.0439326 -0.045205 -0.0482844 -0.0497185 -0.045205 -0.0458618 -0.0497185 -0.0504893 -0.0482844 -0.0497185 -0.052626 -0.0542535 -0.0497185 -0.0504893 -0.0542535 -0.0551753 -0.000150728 -0.000901629 0.000111979 -0.0010148 -0.000901629 -0.00332713 -0.0010148 -0.00360502 0.000111979 -0.0010148 0.00046765 -0.00114556 -0.0010148 -0.00360502 -0.00114556 -0.00389849 -0.00332713 -0.00686363 -0.00360502 -0.00745682 -0.00686363 -0.0111776 -0.00745682 -0.0121383 -0.00360502 -0.00745682 -0.00389849 -0.00808704 -0.00745682 -0.0121383 -0.00808704 -0.0131573 0.00046765 -0.00114556 0.000922309 -0.00129877 -0.00114556 -0.00389849 -0.00129877 -0.00422134 0.000922309 -0.00129877 0.00148335 -0.00147884 -0.00129877 -0.00422134 -0.00147884 -0.00458536 -0.00389849 -0.00808704 -0.00422134 -0.00878163 -0.00808704 -0.0131573 -0.00878163 -0.0142761 -0.00422134 -0.00878163 -0.00458536 -0.00956416 -0.00878163 -0.0142761 -0.00956416 -0.0155303 -0.0111776 -0.0159707 -0.0121383 -0.0173345 -0.0159707 -0.0209991 -0.0173345 -0.0227774 -0.0121383 -0.0173345 -0.0131573 -0.0187807 -0.0173345 -0.0227774 -0.0187807 -0.0246631 -0.0209991 -0.0260652 -0.0227774 -0.0282545 -0.0260652 -0.0310115 -0.0282545 -0.0335991 -0.0227774 -0.0282545 -0.0246631 -0.030577 -0.0282545 -0.0335991 -0.030577 -0.0363464 -0.0131573 -0.0187807 -0.0142761 -0.0203643 -0.0187807 -0.0246631 -0.0203643 -0.0267235 -0.0142761 -0.0203643 -0.0155303 -0.0221322 -0.0203643 -0.0267235 -0.0221322 -0.029015 -0.0246631 -0.030577 -0.0267235 -0.0331107 -0.030577 -0.0363464 -0.0331107 -0.0393405 -0.0267235 -0.0331107 -0.029015 -0.0359189 -0.0331107 -0.0393405 -0.0359189 -0.0426497 0.00148335 -0.00147884 0.00215986 -0.00169022 -0.00147884 -0.00458536 -0.00169022 -0.00500151 0.00215986 -0.00169022 0.00296281 -0.00193777 -0.00169022 -0.00500151 -0.00193777 -0.00548118 -0.00458536 -0.00956416 -0.00500151 -0.0104564 -0.00956416 -0.0155303 -0.0104564 -0.0169524 -0.00500151 -0.0104564 -0.00548118 -0.0114805 -0.0104564 -0.0169524 -0.0114805 -0.0185744 0.00296281 -0.00193777 0.00390531 -0.00222735 -0.00193777 -0.00548118 -0.00222735 -0.00603762 0.00390531 -0.00222735 0.00500321 -0.00256638 -0.00222735 -0.00603762 -0.00256638 -0.00668752 -0.00548118 -0.0114805 -0.00603762 -0.0126618 -0.0114805 -0.0185744 -0.0126618 -0.0204312 -0.00603762 -0.0126618 -0.00668752 -0.0140306 -0.0126618 -0.0204312 -0.0140306 -0.0225637 -0.0155303 -0.0221322 -0.0169524 -0.0241259 -0.0221322 -0.029015 -0.0241259 -0.0315854 -0.0169524 -0.0241259 -0.0185744 -0.0263849 -0.0241259 -0.0315854 -0.0263849 -0.0344785 -0.029015 -0.0359189 -0.0315854 -0.0390535 -0.0359189 -0.0426497 -0.0390535 -0.0463274 -0.0315854 -0.0390535 -0.0344785 -0.0425589 -0.0390535 -0.0463274 -0.0425589 -0.050415 -0.0185744 -0.0263849 -0.0204312 -0.0289503 -0.0263849 -0.0344785 -0.0289503 -0.0377369 -0.0204312 -0.0289503 -0.0225637 -0.0318678 -0.0289503 -0.0377369 -0.0318678 -0.0414042 -0.0344785 -0.0425589 -0.0377369 -0.0464741 -0.0425589 -0.050415 -0.0464741 -0.0549442 -0.0377369 -0.0464741 -0.0414042 -0.0508345 -0.0464741 -0.0549442 -0.0508345 -0.0599361 -0.0310115 -0.0357136 -0.0335991 -0.0386818 -0.0357136 -0.0400723 -0.0386818 -0.0434011 -0.0335991 -0.0386818 -0.0363464 -0.0418375 -0.0386818 -0.0434011 -0.0418375 -0.0469473 -0.0400723 -0.044007 -0.0434011 -0.0476754 -0.044007 -0.0474498 -0.0476754 -0.0514361 -0.0434011 -0.0476754 -0.0469473 -0.0515944 -0.0476754 -0.0514361 -0.0515944 -0.0557102 -0.0363464 -0.0418375 -0.0393405 -0.0452753 -0.0418375 -0.0469473 -0.0452753 -0.0508122 -0.0393405 -0.0452753 -0.0426497 -0.0490673 -0.0452753 -0.0508122 -0.0490673 -0.0550702 -0.0469473 -0.0515944 -0.0508122 -0.0558713 -0.0515944 -0.0557102 -0.0558713 -0.0603859 -0.0508122 -0.0558713 -0.0550702 -0.0605824 -0.0558713 -0.0603859 -0.0605824 -0.0655414 -0.0474498 -0.0503411 -0.0514361 -0.0546218 -0.0503411 -0.052626 -0.0546218 -0.0571749 -0.0514361 -0.0546218 -0.0557102 -0.059233 -0.0546218 -0.0571749 -0.059233 -0.0621029 -0.052626 -0.0542535 -0.0571749 -0.0590395 -0.0542535 -0.0551753 -0.0590395 -0.06016 -0.0571749 -0.0590395 -0.0621029 -0.0642588 -0.0590395 -0.06016 -0.0642588 -0.0656375 -0.0557102 -0.059233 -0.0603859 -0.0642952 -0.059233 -0.0621029 -0.0642952 -0.0675381 -0.0603859 -0.0642952 -0.0655414 -0.0698897 -0.0642952 -0.0675381 -0.0698897 -0.0735673 -0.0621029 -0.0642588 -0.0675381 -0.0700494 -0.0642588 -0.0656375 -0.0700494 -0.0717575 -0.0675381 -0.0700494 -0.0735673 -0.0765063 -0.0700494 -0.0717575 -0.0765063 -0.0786275 -0.0426497 -0.0490673 -0.0463274 -0.0532659 -0.0490673 -0.0550702 -0.0532659 -0.0597718 -0.0463274 -0.0532659 -0.050415 -0.0579074 -0.0532659 -0.0597718 -0.0579074 -0.0649456 -0.0550702 -0.0605824 -0.0597718 -0.0657754 -0.0605824 -0.0655414 -0.0657754 -0.071222 -0.0597718 -0.0657754 -0.0649456 -0.0714707 -0.0657754 -0.071222 -0.0714707 -0.0774398 -0.050415 -0.0579074 -0.0549442 -0.063012 -0.0579074 -0.0649456 -0.063012 -0.0705982 -0.0549442 -0.063012 -0.0599361 -0.068582 -0.063012 -0.0705982 -0.068582 -0.0767093 -0.0649456 -0.0714707 -0.0705982 -0.0776592 -0.0714707 -0.0774398 -0.0776592 -0.0841692 -0.0705982 -0.0776592 -0.0767093 -0.0842951 -0.0776592 -0.0841692 -0.0842951 -0.0913366 -0.0655414 -0.0698897 -0.071222 -0.0760609 -0.0698897 -0.0735673 -0.0760609 -0.0802362 -0.071222 -0.0760609 -0.0774398 -0.0828134 -0.0760609 -0.0802362 -0.0828134 -0.0875451 -0.0735673 -0.0765063 -0.0802362 -0.0836808 -0.0765063 -0.0786275 -0.0836808 -0.0863097 -0.0802362 -0.0836808 -0.0875451 -0.0915728 -0.0836808 -0.0863097 -0.0915728 -0.0948107 -0.0774398 -0.0828134 -0.0841692 -0.0901057 -0.0828134 -0.0875451 -0.0901057 -0.0954382 -0.0841692 -0.0901057 -0.0913366 -0.0978355 -0.0901057 -0.0954382 -0.0978355 -0.103785 -0.0875451 -0.0915728 -0.0954382 -0.100117 -0.0915728 -0.0948107 -0.100117 -0.104061 -0.0954382 -0.100117 -0.103785 -0.109155 -0.100117 -0.104061 -0.109155 -0.113883 -9.31373e-05 -9.43803e-05 -0.0118591 -0.0118703 -9.43803e-05 -9.36797e-05 -0.0118703 -0.0116924 -0.0118591 -0.0118703 -0.0214465 -0.0214484 -0.0118703 -0.0116924 -0.0214484 -0.0211166 -9.36797e-05 -9.08684e-05 -0.0116924 -0.0113217 -9.08684e-05 -8.5821e-05 -0.0113217 -0.0107588 -0.0116924 -0.0113217 -0.0211166 -0.020446 -0.0113217 -0.0107588 -0.020446 -0.0194395 -0.0214465 -0.0214484 -0.029201 -0.0291872 -0.0214484 -0.0211166 -0.0291872 -0.0287283 -0.029201 -0.0291872 -0.0355775 -0.0355536 -0.0291872 -0.0287283 -0.0355536 -0.0349969 -0.0211166 -0.020446 -0.0287283 -0.0278192 -0.020446 -0.0194395 -0.0278192 -0.0264648 -0.0287283 -0.0278192 -0.0349969 -0.0339014 -0.0278192 -0.0264648 -0.0339014 -0.0322735 -8.5821e-05 -7.84823e-05 -0.0107588 -0.0100098 -7.84823e-05 -6.8892e-05 -0.0100098 -0.00908805 -0.0107588 -0.0100098 -0.0194395 -0.0181096 -0.0100098 -0.00908805 -0.0181096 -0.0164809 -6.8892e-05 -5.7205e-05 -0.00908805 -0.00801511 -5.7205e-05 -4.37176e-05 -0.00801511 -0.00682258 -0.00908805 -0.00801511 -0.0164809 -0.0145923 -0.00801511 -0.00682258 -0.0145923 -0.0124992 -0.0194395 -0.0181096 -0.0264648 -0.0246831 -0.0181096 -0.0164809 -0.0246831 -0.0225073 -0.0264648 -0.0246831 -0.0322735 -0.0301344 -0.0246831 -0.0225073 -0.0301344 -0.0275237 -0.0164809 -0.0145923 -0.0225073 -0.0199894 -0.0145923 -0.0124992 -0.0199894 -0.0172022 -0.0225073 -0.0199894 -0.0275237 -0.0245027 -0.0199894 -0.0172022 -0.0245027 -0.0211567 -0.0355775 -0.0355536 -0.0410036 -0.040985 -0.0355536 -0.0349969 -0.040985 -0.0403609 -0.0410036 -0.040985 -0.0458618 -0.045872 -0.040985 -0.0403609 -0.045872 -0.0452131 -0.0349969 -0.0339014 -0.0403609 -0.0391236 -0.0339014 -0.0322735 -0.0391236 -0.0372787 -0.0403609 -0.0391236 -0.0452131 -0.0438731 -0.0391236 -0.0372787 -0.0438731 -0.0418549 -0.0458618 -0.045872 -0.0504893 -0.0505602 -0.045872 -0.0452131 -0.0505602 -0.0499019 -0.0504893 -0.0505602 -0.0551753 -0.0553469 -0.0505602 -0.0499019 -0.0553469 -0.0547305 -0.0452131 -0.0438731 -0.0499019 -0.0484964 -0.0438731 -0.0418549 -0.0484964 -0.0463404 -0.0499019 -0.0484964 -0.0547305 -0.053298 -0.0484964 -0.0463404 -0.053298 -0.051037 -0.0322735 -0.0301344 -0.0372787 -0.0348487 -0.0301344 -0.0275237 -0.0348487 -0.0318771 -0.0372787 -0.0348487 -0.0418549 -0.0391797 -0.0348487 -0.0318771 -0.0391797 -0.0358923 -0.0275237 -0.0245027 -0.0318771 -0.0284316 -0.0245027 -0.0211567 -0.0284316 -0.0246073 -0.0318771 -0.0284316 -0.0358923 -0.0320649 -0.0284316 -0.0246073 -0.0320649 -0.0278008 -0.0418549 -0.0391797 -0.0463404 -0.0434512 -0.0391797 -0.0358923 -0.0434512 -0.0398721 -0.0463404 -0.0434512 -0.051037 -0.047957 -0.0434512 -0.0398721 -0.047957 -0.0440969 -0.0358923 -0.0320649 -0.0398721 -0.0356781 -0.0320649 -0.0278008 -0.0356781 -0.0309803 -0.0398721 -0.0356781 -0.0440969 -0.0395322 -0.0356781 -0.0309803 -0.0395322 -0.0343815 -4.37176e-05 -2.88929e-05 -0.00682258 -0.00555336 -2.88929e-05 -1.34919e-05 -0.00555336 -0.00426214 -0.00682258 -0.00555336 -0.0124992 -0.0102754 -0.00555336 -0.00426214 -0.0102754 -0.00801335 -1.34919e-05 1.73205e-06 -0.00426214 -0.00301781 1.73205e-06 1.40408e-05 -0.00301781 -0.00188971 -0.00426214 -0.00301781 -0.00801335 -0.00582543 -0.00301781 -0.00188971 -0.00582543 -0.00382631 -0.0124992 -0.0102754 -0.0172022 -0.0142409 -0.0102754 -0.00801335 -0.0142409 -0.0112235 -0.0172022 -0.0142409 -0.0211567 -0.0175969 -0.0142409 -0.0112235 -0.0175969 -0.0139596 -0.00801335 -0.00582543 -0.0112235 -0.00829033 -0.00582543 -0.00382631 -0.00829033 -0.00558496 -0.0112235 -0.00829033 -0.0139596 -0.0104055 -0.00829033 -0.00558496 -0.0104055 -0.00710079 1.40408e-05 2.30246e-05 -0.00188971 -0.00100804 2.30246e-05 5.30402e-05 -0.00100804 -0.000177789 -0.00188971 -0.00100804 -0.00382631 -0.00219738 -0.00100804 -0.000177789 -0.00219738 -0.000752151 5.30402e-05 -9.49338e-06 -0.000177789 -0.000859531 -9.49338e-06 0.00702324 -0.000859531 0.00622679 -0.000177789 -0.000859531 -0.000752151 -0.00106318 -0.000859531 0.00622679 -0.00106318 0.00646635 -0.00382631 -0.00219738 -0.00558496 -0.00331678 -0.00219738 -0.000752151 -0.00331678 -0.00132972 -0.00558496 -0.00331678 -0.00710079 -0.00427861 -0.00331678 -0.00132972 -0.00427861 -0.00182057 -0.000752151 -0.00106318 -0.00132972 -0.00123978 -0.00106318 0.00646635 -0.00123978 0.00629254 -0.00132972 -0.00123978 -0.00182057 -0.0013668 -0.00123978 0.00629254 -0.0013668 0.0061539 -0.0211567 -0.0175969 -0.0246073 -0.0205283 -0.0175969 -0.0139596 -0.0205283 -0.0163468 -0.0246073 -0.0205283 -0.0278008 -0.0232366 -0.0205283 -0.0163468 -0.0232366 -0.0185412 -0.0139596 -0.0104055 -0.0163468 -0.0122426 -0.0104055 -0.00710079 -0.0122426 -0.00840394 -0.0163468 -0.0122426 -0.0185412 -0.0139154 -0.0122426 -0.00840394 -0.0139154 -0.00957253 -0.0278008 -0.0232366 -0.0309803 -0.0259286 -0.0232366 -0.0185412 -0.0259286 -0.0207116 -0.0309803 -0.0259286 -0.0343815 -0.02881 -0.0259286 -0.0207116 -0.02881 -0.0230295 -0.0185412 -0.0139154 -0.0207116 -0.0155549 -0.0139154 -0.00957253 -0.0155549 -0.0107023 -0.0207116 -0.0155549 -0.0230295 -0.017297 -0.0155549 -0.0107023 -0.017297 -0.0118932 -0.00710079 -0.00427861 -0.00840394 -0.0050901 -0.00427861 -0.00182057 -0.0050901 -0.00222062 -0.00840394 -0.0050901 -0.00957253 -0.00580197 -0.0050901 -0.00222062 -0.00580197 -0.00256003 -0.00182057 -0.0013668 -0.00222062 -0.00146606 -0.0013668 0.0061539 -0.00146606 0.0060663 -0.00222062 -0.00146606 -0.00256003 -0.00155237 -0.00146606 0.0060663 -0.00155237 0.00602901 -0.00957253 -0.00580197 -0.0107023 -0.00647797 -0.00580197 -0.00256003 -0.00647797 -0.00287353 -0.0107023 -0.00647797 -0.0118932 -0.00718317 -0.00647797 -0.00287353 -0.00718317 -0.00319493 -0.00256003 -0.00155237 -0.00287353 -0.00163669 -0.00155237 0.00602901 -0.00163669 0.00604516 -0.00287353 -0.00163669 -0.00319493 -0.00172922 -0.00163669 0.00604516 -0.00172922 0.00611314 -0.0551753 -0.0553469 -0.06016 -0.0604827 -0.0553469 -0.0547305 -0.0604827 -0.0599575 -0.06016 -0.0604827 -0.0656375 -0.0661734 -0.0604827 -0.0599575 -0.0661734 -0.0658018 -0.0547305 -0.053298 -0.0599575 -0.0585433 -0.053298 -0.051037 -0.0585433 -0.0562136 -0.0599575 -0.0585433 -0.0658018 -0.0644634 -0.0585433 -0.0562136 -0.0644634 -0.0621124 -0.0656375 -0.0661734 -0.0717575 -0.0725838 -0.0661734 -0.0658018 -0.0725838 -0.0724454 -0.0717575 -0.0725838 -0.0786275 -0.0798385 -0.0725838 -0.0724454 -0.0798385 -0.0800353 -0.0658018 -0.0644634 -0.0724454 -0.0712599 -0.0644634 -0.0621124 -0.0712599 -0.0689551 -0.0724454 -0.0712599 -0.0800353 -0.0791069 -0.0712599 -0.0689551 -0.0791069 -0.0769463 -0.051037 -0.047957 -0.0562136 -0.0529656 -0.047957 -0.0440969 -0.0529656 -0.0488293 -0.0562136 -0.0529656 -0.0621124 -0.0587271 -0.0529656 -0.0488293 -0.0587271 -0.0543225 -0.0440969 -0.0395322 -0.0488293 -0.0438778 -0.0395322 -0.0343815 -0.0438778 -0.0382362 -0.0488293 -0.0438778 -0.0543225 -0.0489643 -0.0438778 -0.0382362 -0.0489643 -0.0427815 -0.0621124 -0.0587271 -0.0689551 -0.0654817 -0.0587271 -0.0543225 -0.0654817 -0.060831 -0.0689551 -0.0654817 -0.0769463 -0.0734659 -0.0654817 -0.060831 -0.0734659 -0.0686196 -0.0543225 -0.0489643 -0.060831 -0.0550528 -0.0489643 -0.0427815 -0.0550528 -0.0482744 -0.060831 -0.0550528 -0.0686196 -0.0624287 -0.0550528 -0.0482744 -0.0624287 -0.055008 -0.0786275 -0.0798385 -0.0863097 -0.0880176 -0.0798385 -0.0800353 -0.0880176 -0.0886775 -0.0863097 -0.0880176 -0.0948107 -0.0971431 -0.0880176 -0.0886775 -0.0971431 -0.0984208 -0.0800353 -0.0791069 -0.0886775 -0.0881451 -0.0791069 -0.0769463 -0.0881451 -0.086269 -0.0886775 -0.0881451 -0.0984208 -0.0984621 -0.0881451 -0.086269 -0.0984621 -0.0970623 -0.0948107 -0.0971431 -0.104061 -0.107152 -0.0971431 -0.0984208 -0.107152 -0.109222 -0.104061 -0.107152 -0.113883 -0.117854 -0.107152 -0.109222 -0.117854 -0.120891 -0.0984208 -0.0984621 -0.109222 -0.110051 -0.0984621 -0.0970623 -0.110051 -0.109375 -0.109222 -0.110051 -0.120891 -0.122743 -0.110051 -0.109375 -0.122743 -0.123084 -0.0769463 -0.0734659 -0.086269 -0.0829091 -0.0734659 -0.0686196 -0.0829091 -0.0779644 -0.086269 -0.0829091 -0.0970623 -0.0940128 -0.0829091 -0.0779644 -0.0940128 -0.0891341 -0.0686196 -0.0624287 -0.0779644 -0.0714072 -0.0624287 -0.055008 -0.0714072 -0.0633224 -0.0779644 -0.0714072 -0.0891341 -0.0823217 -0.0714072 -0.0633224 -0.0823217 -0.0736006 -0.0970623 -0.0940128 -0.109375 -0.106899 -0.0940128 -0.0891341 -0.106899 -0.10234 -0.109375 -0.106899 -0.123084 -0.12152 -0.106899 -0.10234 -0.12152 -0.117635 -0.0891341